/*--------------------------------*- C++ -*----------------------------------*\
  =========                 |
  \\      /  F ield         | OpenFOAM: The Open Source CFD Toolbox
   \\    /   O peration     | Website:  https://openfoam.org
    \\  /    A nd           | Version:  6
     \\/     M anipulation  |
\*---------------------------------------------------------------------------*/
FoamFile
{
    version     2.0;
    format      ascii;
    class       volScalarField;
    location    "3200";
    object      p;
}
// * * * * * * * * * * * * * * * * * * * * * * * * * * * * * * * * * * * * * //

dimensions      [0 2 -2 0 0 0 0];

internalField   nonuniform List<scalar> 
2500
(
1.76825
0.853276
0.530836
0.386152
0.294795
0.235625
0.195146
0.165957
0.144142
0.127378
0.11421
0.103688
0.0951664
0.0881955
0.0824514
0.077697
0.0737559
0.0704946
0.0678115
0.065629
0.0638876
0.0625426
0.0615607
0.0609184
0.060601
0.060601
0.0609184
0.0615607
0.0625426
0.0638876
0.065629
0.0678115
0.0704946
0.0737559
0.077697
0.0824514
0.0881955
0.0951664
0.103688
0.11421
0.127378
0.144142
0.165957
0.195146
0.235625
0.294795
0.386152
0.530836
0.853276
1.76825
1.28137
0.681773
0.479225
0.363708
0.283435
0.229615
0.191659
0.163778
0.142706
0.126394
0.11352
0.1032
0.0948244
0.0879617
0.0823004
0.0776106
0.0737204
0.0704996
0.0678487
0.0656916
0.0639701
0.06264
0.0616689
0.0610336
0.0607195
0.0607195
0.0610336
0.0616689
0.06264
0.0639701
0.0656916
0.0678487
0.0704996
0.0737204
0.0776106
0.0823004
0.0879617
0.0948244
0.1032
0.11352
0.126394
0.142706
0.163778
0.191659
0.229615
0.283435
0.363708
0.479225
0.681773
1.28137
0.942205
0.553922
0.433692
0.339426
0.269895
0.221908
0.186919
0.160698
0.140619
0.124933
0.112472
0.102438
0.0942665
0.0875553
0.0820086
0.0774073
0.0735861
0.0704195
0.0678113
0.0656877
0.063992
0.0626815
0.0617243
0.0610981
0.0607884
0.0607884
0.0610981
0.0617243
0.0626815
0.063992
0.0656877
0.0678113
0.0704195
0.0735861
0.0774073
0.0820086
0.0875553
0.0942665
0.102438
0.112472
0.124933
0.140619
0.160698
0.186919
0.221908
0.269895
0.339426
0.433692
0.553922
0.942205
0.735166
0.46963
0.390969
0.31255
0.2539
0.212076
0.18052
0.156377
0.137604
0.12277
0.110886
0.101255
0.093375
0.0868785
0.0814936
0.077016
0.0732905
0.0701984
0.0676485
0.0655702
0.0639094
0.0626249
0.0616863
0.061072
0.0607682
0.0607682
0.061072
0.0616863
0.0626249
0.0639094
0.0655702
0.0676485
0.0701984
0.0732905
0.077016
0.0814936
0.0868785
0.093375
0.101255
0.110886
0.12277
0.137604
0.156377
0.18052
0.212076
0.2539
0.31255
0.390969
0.46963
0.735166
0.585291
0.401338
0.347647
0.284007
0.236138
0.200528
0.172714
0.150957
0.133738
0.119945
0.108782
0.0996632
0.0921549
0.0859343
0.0807577
0.0764394
0.0728371
0.0698409
0.0673657
0.0653454
0.0637291
0.0624779
0.061563
0.0609639
0.0606676
0.0606676
0.0609639
0.061563
0.0624779
0.0637291
0.0653454
0.0673657
0.0698409
0.0728371
0.0764394
0.0807577
0.0859343
0.0921549
0.0996632
0.108782
0.119945
0.133738
0.150957
0.172714
0.200528
0.236138
0.284007
0.347647
0.401338
0.585291
0.468535
0.342208
0.305957
0.255861
0.217737
0.187989
0.16397
0.144735
0.129211
0.116586
0.106247
0.0977203
0.0906475
0.0847525
0.0798229
0.0756944
0.0722391
0.0693574
0.0669716
0.0650207
0.0634576
0.0622463
0.0613597
0.0607789
0.0604914
0.0604914
0.0607789
0.0613597
0.0622463
0.0634576
0.0650207
0.0669716
0.0693574
0.0722391
0.0756944
0.0798229
0.0847525
0.0906475
0.0977203
0.106247
0.116586
0.129211
0.144735
0.16397
0.187989
0.217737
0.255861
0.305957
0.342208
0.468535
0.378425
0.292154
0.267854
0.229232
0.199404
0.174984
0.154641
0.137942
0.124177
0.112795
0.103348
0.0954738
0.0888856
0.0833559
0.0787051
0.0747917
0.0715037
0.0687528
0.0664691
0.0645977
0.0630957
0.06193
0.061076
0.0605161
0.0602389
0.0602389
0.0605161
0.061076
0.06193
0.0630957
0.0645977
0.0664691
0.0687528
0.0715037
0.0747917
0.0787051
0.0833559
0.0888856
0.0954738
0.103348
0.112795
0.124177
0.137942
0.154641
0.174984
0.199404
0.229232
0.267854
0.292154
0.378425
0.308909
0.249998
0.233687
0.204437
0.181514
0.161855
0.144976
0.13075
0.118755
0.108653
0.100142
0.0929628
0.0868961
0.0817629
0.0774171
0.0737401
0.0706369
0.0680307
0.0658604
0.0640774
0.0626434
0.0615288
0.0607111
0.0601746
0.0599088
0.0599088
0.0601746
0.0607111
0.0615288
0.0626434
0.0640774
0.0658604
0.0680307
0.0706369
0.0737401
0.0774171
0.0817629
0.0868961
0.0929628
0.100142
0.108653
0.118755
0.13075
0.144976
0.161855
0.181514
0.204437
0.233687
0.249998
0.308909
0.254324
0.214074
0.203209
0.181529
0.164306
0.14885
0.13517
0.123304
0.113048
0.104234
0.0966824
0.090224
0.0847052
0.0799923
0.0759719
0.0725488
0.0696447
0.0671952
0.0651481
0.0634614
0.0621016
0.0610427
0.0602648
0.0597539
0.0595006
0.0595006
0.0597539
0.0602648
0.0610427
0.0621016
0.0634614
0.0651481
0.0671952
0.0696447
0.0725488
0.0759719
0.0799923
0.0847052
0.090224
0.0966824
0.104234
0.113048
0.123304
0.13517
0.14885
0.164306
0.181529
0.203209
0.214074
0.254324
0.210538
0.183108
0.176096
0.160484
0.147934
0.136151
0.125376
0.115725
0.107148
0.0996042
0.0930163
0.0872926
0.0823383
0.0780624
0.0743828
0.0712273
0.068534
0.0662511
0.0643354
0.0627517
0.0614714
0.0604723
0.0597373
0.0592539
0.0590141
0.0590141
0.0592539
0.0597373
0.0604723
0.0614714
0.0627517
0.0643354
0.0662511
0.068534
0.0712273
0.0743828
0.0780624
0.0823383
0.0872926
0.0930163
0.0996042
0.107148
0.115725
0.125376
0.136151
0.147934
0.160484
0.176096
0.183108
0.210538
0.174716
0.156183
0.152001
0.141217
0.132485
0.123882
0.115713
0.108113
0.101133
0.0948235
0.0891882
0.0842013
0.0798194
0.0759909
0.0726627
0.0697848
0.0673115
0.0652031
0.0634255
0.0619503
0.0607542
0.0598184
0.0591287
0.0586746
0.0584491
0.0584491
0.0586746
0.0591287
0.0598184
0.0607542
0.0619503
0.0634255
0.0652031
0.0673115
0.0697848
0.0726627
0.0759909
0.0798194
0.0842013
0.0891882
0.0948235
0.101133
0.108113
0.115713
0.123882
0.132485
0.141217
0.152001
0.156183
0.174716
0.144865
0.132594
0.130566
0.123606
0.117992
0.112125
0.106269
0.100548
0.0950682
0.0899432
0.0852377
0.0809799
0.077171
0.0737944
0.0708241
0.0682305
0.0659838
0.0640559
0.0624218
0.0610597
0.0599513
0.0590818
0.0584396
0.0580161
0.0578058
0.0578058
0.0580161
0.0584396
0.0590818
0.0599513
0.0610597
0.0624218
0.0640559
0.0659838
0.0682305
0.0708241
0.0737944
0.077171
0.0809799
0.0852377
0.0899432
0.0950682
0.100548
0.106269
0.112125
0.117992
0.123606
0.130566
0.132594
0.144865
0.119566
0.111785
0.111454
0.107523
0.104459
0.10093
0.0971119
0.093093
0.0890089
0.085008
0.0811998
0.0776557
0.074414
0.0714888
0.0688789
0.0665735
0.0645576
0.0628145
0.0613277
0.0600821
0.0590645
0.0582636
0.0576707
0.0572791
0.0570843
0.0570843
0.0572791
0.0576707
0.0582636
0.0590645
0.0600821
0.0613277
0.0628145
0.0645576
0.0665735
0.0688789
0.0714888
0.074414
0.0776557
0.0811998
0.085008
0.0890089
0.093093
0.0971119
0.10093
0.104459
0.107523
0.111454
0.111785
0.119566
0.0978076
0.0933236
0.0943741
0.0928453
0.0918692
0.0903271
0.0882886
0.0858006
0.0830013
0.0800567
0.0771061
0.0742534
0.0715676
0.0690892
0.0668386
0.0648225
0.0630396
0.0614838
0.060147
0.0590204
0.0580957
0.0573652
0.0568229
0.056464
0.0562854
0.0562854
0.056464
0.0568229
0.0573652
0.0580957
0.0590204
0.060147
0.0614838
0.0630396
0.0648225
0.0668386
0.0690892
0.0715676
0.0742534
0.0771061
0.0800567
0.0830013
0.0858006
0.0882886
0.0903271
0.0918692
0.0928453
0.0943741
0.0933236
0.0978076
0.0788734
0.0768767
0.0790779
0.0794587
0.0801931
0.0803292
0.0798342
0.0787107
0.0770838
0.0751227
0.0729843
0.0707957
0.06865
0.0666098
0.0647143
0.0629862
0.0614364
0.060069
0.0588836
0.0578775
0.0570471
0.0563882
0.0558975
0.0555721
0.0554099
0.0554099
0.0555721
0.0558975
0.0563882
0.0570471
0.0578775
0.0588836
0.060069
0.0614364
0.0629862
0.0647143
0.0666098
0.06865
0.0707957
0.0729843
0.0751227
0.0770838
0.0787107
0.0798342
0.0803292
0.0801931
0.0794587
0.0790779
0.0768767
0.0788734
0.0622516
0.0621852
0.0653604
0.0672624
0.0693958
0.0709396
0.0717725
0.0718547
0.0712884
0.0702351
0.0688591
0.067303
0.0656777
0.0640639
0.0625169
0.061073
0.0597548
0.0585754
0.0575416
0.0566567
0.0559212
0.0553348
0.0548963
0.0546047
0.0544591
0.0544591
0.0546047
0.0548963
0.0553348
0.0559212
0.0566567
0.0575416
0.0585754
0.0597548
0.061073
0.0625169
0.0640639
0.0656777
0.067303
0.0688591
0.0702351
0.0712884
0.0718547
0.0717725
0.0709396
0.0693958
0.0672624
0.0653604
0.0621852
0.0622516
0.0475749
0.0490459
0.0530525
0.0561667
0.0594397
0.0621542
0.0641194
0.0652573
0.0656415
0.0654188
0.0647528
0.0637941
0.0626665
0.0614644
0.0602567
0.0590916
0.0580016
0.0570084
0.0561255
0.0553614
0.0547211
0.0542072
0.0538211
0.0535636
0.0534348
0.0534348
0.0535636
0.0538211
0.0542072
0.0547211
0.0553614
0.0561255
0.0570084
0.0580016
0.0590916
0.0602567
0.0614644
0.0626665
0.0637941
0.0647528
0.0654188
0.0656415
0.0652573
0.0641194
0.0621542
0.0594397
0.0561667
0.0530525
0.0490459
0.0475749
0.0345756
0.0372966
0.0420138
0.0460915
0.0502854
0.0539631
0.0568838
0.0589366
0.0601647
0.0606951
0.0606846
0.0602859
0.0596304
0.0588232
0.0579436
0.0570499
0.0561836
0.0553736
0.0546399
0.0539956
0.0534498
0.0530083
0.0526746
0.0524511
0.052339
0.052339
0.0524511
0.0526746
0.0530083
0.0534498
0.0539956
0.0546399
0.0553736
0.0561836
0.0570499
0.0579436
0.0588232
0.0596304
0.0602859
0.0606846
0.0606951
0.0601647
0.0589366
0.0568838
0.0539631
0.0502854
0.0460915
0.0420138
0.0372966
0.0345756
0.0230573
0.0268079
0.0321292
0.0369672
0.0418957
0.0463546
0.0500708
0.052907
0.0548761
0.0560828
0.0566721
0.056794
0.0565833
0.0561519
0.0555874
0.0549563
0.0543077
0.053677
0.0530897
0.0525636
0.0521112
0.0517413
0.0514595
0.0512698
0.0511744
0.0511744
0.0512698
0.0514595
0.0517413
0.0521112
0.0525636
0.0530897
0.053677
0.0543077
0.0549563
0.0555874
0.0561519
0.0565833
0.056794
0.0566721
0.0560828
0.0548761
0.052907
0.0500708
0.0463546
0.0418957
0.0369672
0.0321292
0.0268079
0.0230573
0.0128734
0.0174754
0.0233036
0.0287331
0.0342357
0.0393155
0.0436827
0.0471797
0.0497915
0.051599
0.0527318
0.0533334
0.0535384
0.0534621
0.0531981
0.0528194
0.0523813
0.0519249
0.0514805
0.0510701
0.0507096
0.0504101
0.0501796
0.0500232
0.0499442
0.0499442
0.0500232
0.0501796
0.0504101
0.0507096
0.0510701
0.0514805
0.0519249
0.0523813
0.0528194
0.0531981
0.0534621
0.0535384
0.0533334
0.0527318
0.051599
0.0497915
0.0471797
0.0436827
0.0393155
0.0342357
0.0287331
0.0233036
0.0174754
0.0128734
0.00391017
0.00921135
0.0154558
0.0213341
0.0272716
0.0328311
0.0377188
0.0417631
0.0449239
0.0472582
0.0488785
0.0499181
0.0505081
0.0507649
0.0507856
0.0506478
0.0504119
0.0501239
0.0498182
0.0495205
0.0492496
0.0490191
0.0488388
0.0487152
0.0486524
0.0486524
0.0487152
0.0488388
0.0490191
0.0492496
0.0495205
0.0498182
0.0501239
0.0504119
0.0506478
0.0507856
0.0507649
0.0505081
0.0499181
0.0488785
0.0472582
0.0449239
0.0417631
0.0377188
0.0328311
0.0272716
0.0213341
0.0154558
0.00921135
0.00391017
-0.00392464
0.00194016
0.00851488
0.0147199
0.0209709
0.0268854
0.032176
0.0366625
0.0402836
0.0430734
0.0451254
0.0465608
0.0475044
0.048071
0.0483593
0.0484499
0.0484072
0.0482808
0.0481089
0.0479203
0.0477364
0.0475731
0.0474417
0.0473501
0.0473031
0.0473031
0.0473501
0.0474417
0.0475731
0.0477364
0.0479203
0.0481089
0.0482808
0.0484072
0.0484499
0.0483593
0.048071
0.0475044
0.0465608
0.0451254
0.0430734
0.0402836
0.0366625
0.032176
0.0268854
0.0209709
0.0147199
0.00851488
0.00194016
-0.00392464
-0.0107088
-0.00440497
0.00241801
0.00884419
0.0153022
0.0214618
0.0270494
0.0318814
0.0358793
0.0390556
0.0414846
0.0432734
0.0445384
0.0453908
0.0459287
0.0462344
0.0463748
0.0464027
0.0463591
0.0462754
0.0461756
0.0460773
0.0459934
0.0459328
0.0459011
0.0459011
0.0459328
0.0459934
0.0460773
0.0461756
0.0462754
0.0463591
0.0464027
0.0463748
0.0462344
0.0459287
0.0453908
0.0445384
0.0432734
0.0414846
0.0390556
0.0358793
0.0318814
0.0270494
0.0214618
0.0153022
0.00884419
0.00241801
-0.00440497
-0.0107088
-0.0165111
-0.00988481
-0.00289193
0.00366346
0.0102355
0.0165435
0.0223328
0.0274217
0.031718
0.0352147
0.0379672
0.0400672
0.0416211
0.0427344
0.0435031
0.0440098
0.0443227
0.0444968
0.0445754
0.0445922
0.044573
0.0445373
0.0444991
0.0444684
0.0444515
0.0444515
0.0444684
0.0444991
0.0445373
0.044573
0.0445922
0.0445754
0.0444968
0.0443227
0.0440098
0.0435031
0.0427344
0.0416211
0.0400672
0.0379672
0.0352147
0.031718
0.0274217
0.0223328
0.0165435
0.0102355
0.00366346
-0.00289193
-0.00988481
-0.0165111
-0.0213957
-0.0145562
-0.00746799
-0.000863586
0.00574132
0.0121126
0.0180188
0.0232835
0.027805
0.0315591
0.0345829
0.0369524
0.0387624
0.0401114
0.0410916
0.0417845
0.0422587
0.0425704
0.0427647
0.042877
0.0429348
0.0429589
0.0429646
0.0429627
0.04296
0.04296
0.0429627
0.0429646
0.0429589
0.0429348
0.042877
0.0427647
0.0425704
0.0422587
0.0417845
0.0410916
0.0401114
0.0387624
0.0369524
0.0345829
0.0315591
0.027805
0.0232835
0.0180188
0.0121126
0.00574132
-0.000863586
-0.00746799
-0.0145562
-0.0213957
-0.0254242
-0.0184738
-0.0113604
-0.00477678
0.00179062
0.00815111
0.0140985
0.0194654
0.0241442
0.028096
0.0313407
0.0339386
0.035972
0.0375311
0.038703
0.0395667
0.0401904
0.0406307
0.0409338
0.0411364
0.0412672
0.0413482
0.0413957
0.0414212
0.0414321
0.0414321
0.0414212
0.0413957
0.0413482
0.0412672
0.0411364
0.0409338
0.0406307
0.0401904
0.0395667
0.038703
0.0375311
0.035972
0.0339386
0.0313407
0.028096
0.0241442
0.0194654
0.0140985
0.00815111
0.00179062
-0.00477678
-0.0113604
-0.0184738
-0.0254242
-0.0286574
-0.0216907
-0.0146176
-0.00811496
-0.00164548
0.0046401
0.0105621
0.0159648
0.020738
0.0248311
0.0282483
0.0310344
0.0332588
0.0350022
0.0363456
0.0373646
0.0381256
0.0386851
0.0390898
0.039377
0.0395766
0.0397114
0.0397985
0.03985
0.0398739
0.0398739
0.03985
0.0397985
0.0397114
0.0395766
0.039377
0.0390898
0.0386851
0.0381256
0.0373646
0.0363456
0.0350022
0.0332588
0.0310344
0.0282483
0.0248311
0.020738
0.0159648
0.0105621
0.0046401
-0.00164548
-0.00811496
-0.0146176
-0.0216907
-0.0286574
-0.0311563
-0.0242593
-0.0172863
-0.0109163
-0.00459588
0.00155995
0.00739832
0.0127773
0.0175873
0.021769
0.0253124
0.0282475
0.0306309
0.0325328
0.0340274
0.0351856
0.0360715
0.0367405
0.0372392
0.0376053
0.0378692
0.0380545
0.0381789
0.038255
0.0382911
0.0382911
0.038255
0.0381789
0.0380545
0.0378692
0.0376053
0.0372392
0.0367405
0.0360715
0.0351856
0.0340274
0.0325328
0.0306309
0.0282475
0.0253124
0.021769
0.0175873
0.0127773
0.00739832
0.00155995
-0.00459588
-0.0109163
-0.0172863
-0.0242593
-0.0311563
-0.0329821
-0.0262315
-0.0194123
-0.0132183
-0.00708969
-0.0011098
0.00459459
0.00989704
0.0146916
0.0189125
0.0225381
0.0255845
0.0280954
0.0301304
0.0317557
0.0330369
0.034035
0.0348036
0.0353885
0.0358275
0.0361512
0.0363836
0.0365428
0.036642
0.0366894
0.0366894
0.036642
0.0365428
0.0363836
0.0361512
0.0358275
0.0353885
0.0348036
0.034035
0.0330369
0.0317557
0.0301304
0.0280954
0.0255845
0.0225381
0.0189125
0.0146916
0.00989704
0.00459459
-0.0011098
-0.00708969
-0.0132183
-0.0194123
-0.0262315
-0.0329821
-0.034196
-0.0276586
-0.0210403
-0.0150583
-0.00915619
-0.00339048
0.0021371
0.00731674
0.0120485
0.0162632
0.0199294
0.0230509
0.0256587
0.0278015
0.0295371
0.0309252
0.0320226
0.0328807
0.0335439
0.0340496
0.0344284
0.0347043
0.0348959
0.0350165
0.0350746
0.0350746
0.0350165
0.0348959
0.0347043
0.0344284
0.0340496
0.0335439
0.0328807
0.0320226
0.0309252
0.0295371
0.0278015
0.0256587
0.0230509
0.0199294
0.0162632
0.0120485
0.00731674
0.0021371
-0.00339048
-0.00915619
-0.0150583
-0.0210403
-0.0276586
-0.034196
-0.0348591
-0.0285911
-0.0222138
-0.0164728
-0.0108248
-0.00530419
1.07327e-05
0.00502745
0.00965422
0.013821
0.0174891
0.020651
0.0233259
0.0255518
0.0273776
0.0288563
0.0300401
0.0309773
0.0317109
0.0322771
0.0327061
0.033022
0.0332434
0.0333837
0.0334516
0.0334516
0.0333837
0.0332434
0.033022
0.0327061
0.0322771
0.0317109
0.0309773
0.0300401
0.0288563
0.0273776
0.0255518
0.0233259
0.020651
0.0174891
0.013821
0.00965422
0.00502745
1.07327e-05
-0.00530419
-0.0108248
-0.0164728
-0.0222138
-0.0285911
-0.0348591
-0.0350315
-0.0290784
-0.022975
-0.0174978
-0.0121252
-0.00687381
-0.00180086
0.00301874
0.00750327
0.0115844
0.0152181
0.0183876
0.0211012
0.0233861
0.0252822
0.0268353
0.0280926
0.0290988
0.0298946
0.0305149
0.0309893
0.0313415
0.0315901
0.0317485
0.0318254
0.0318254
0.0317485
0.0315901
0.0313415
0.0309893
0.0305149
0.0298946
0.0290988
0.0280926
0.0268353
0.0252822
0.0233861
0.0211012
0.0183876
0.0152181
0.0115844
0.00750327
0.00301874
-0.00180086
-0.00687381
-0.0121252
-0.0174978
-0.022975
-0.0290784
-0.0350315
-0.0347717
-0.0291684
-0.0233647
-0.0181684
-0.0130865
-0.0081227
-0.00331507
0.00127878
0.00558866
0.00955014
0.0131162
0.0162626
0.0189875
0.0213082
0.0232551
0.0248668
0.0261848
0.0272497
0.0280995
0.0287676
0.0292824
0.0296673
0.0299404
0.0301152
0.0302004
0.0302004
0.0301152
0.0299404
0.0296673
0.0292824
0.0287676
0.0280995
0.0272497
0.0261848
0.0248668
0.0232551
0.0213082
0.0189875
0.0162626
0.0131162
0.00955014
0.00558866
0.00127878
-0.00331507
-0.0081227
-0.0130865
-0.0181684
-0.0233647
-0.0291684
-0.0347717
-0.0341355
-0.0289068
-0.0234218
-0.0185186
-0.0137379
-0.00907463
-0.00455028
-0.000205585
0.00390189
0.00771361
0.0111818
0.0142764
0.0169869
0.0193208
0.0212997
0.0229545
0.0243204
0.0254339
0.0263297
0.0270392
0.0275896
0.0280034
0.0282984
0.0284878
0.0285803
0.0285803
0.0284878
0.0282984
0.0280034
0.0275896
0.0270392
0.0263297
0.0254339
0.0243204
0.0229545
0.0212997
0.0193208
0.0169869
0.0142764
0.0111818
0.00771361
0.00390189
-0.000205585
-0.00455028
-0.00907463
-0.0137379
-0.0185186
-0.0234218
-0.0289068
-0.0341355
-0.0331755
-0.0283368
-0.0231833
-0.0185811
-0.0141079
-0.00975376
-0.00552589
-0.00144901
0.00243271
0.00606834
0.00941141
0.0124278
0.0150995
0.0174255
0.0194182
0.0211009
0.0225024
0.0236545
0.0245883
0.0253329
0.0259139
0.0263528
0.0266671
0.0268695
0.0269685
0.0269685
0.0268695
0.0266671
0.0263528
0.0259139
0.0253329
0.0245883
0.0236545
0.0225024
0.0211009
0.0194182
0.0174255
0.0150995
0.0124278
0.00941141
0.00606834
0.00243271
-0.00144901
-0.00552589
-0.00975376
-0.0141079
-0.0185811
-0.0231833
-0.0283368
-0.0331755
-0.03194
-0.0274984
-0.0226837
-0.0183869
-0.0142243
-0.0101842
-0.0062619
-0.00246719
0.00116953
0.0046064
0.00780007
0.0107141
0.0133247
0.0156225
0.0176118
0.0193077
0.0207329
0.0219137
0.0228776
0.023651
0.0242578
0.0247183
0.0250491
0.0252627
0.0253674
0.0253674
0.0252627
0.0250491
0.0247183
0.0242578
0.023651
0.0228776
0.0219137
0.0207329
0.0193077
0.0176118
0.0156225
0.0133247
0.0107141
0.00780007
0.0046064
0.00116953
-0.00246719
-0.0062619
-0.0101842
-0.0142243
-0.0183869
-0.0226837
-0.0274984
-0.03194
-0.0304722
-0.026428
-0.0219547
-0.0179652
-0.0141137
-0.0103895
-0.00677847
-0.00327651
9.97942e-05
0.00331876
0.00634179
0.00913193
0.0116607
0.0139115
0.0158808
0.0175761
0.0190133
0.0202133
0.0211997
0.0219958
0.0226234
0.0231018
0.0234465
0.0236696
0.0237791
0.0237791
0.0236696
0.0234465
0.0231018
0.0226234
0.0219958
0.0211997
0.0202133
0.0190133
0.0175761
0.0158808
0.0139115
0.0116607
0.00913193
0.00634179
0.00331876
9.97942e-05
-0.00327651
-0.00677847
-0.0103895
-0.0141137
-0.0179652
-0.0219547
-0.026428
-0.0304722
-0.0288097
-0.025158
-0.0210252
-0.0173429
-0.0138014
-0.0103929
-0.007096
-0.00389407
-0.000790101
0.00219516
0.00502929
0.00767633
0.0101044
0.012291
0.014225
0.0159064
0.0173444
0.0185545
0.0195558
0.0203686
0.0210124
0.0215049
0.0218609
0.0220918
0.0222053
0.0222053
0.0220918
0.0218609
0.0215049
0.0210124
0.0203686
0.0195558
0.0185545
0.0173444
0.0159064
0.014225
0.012291
0.0101044
0.00767633
0.00502929
0.00219516
-0.000790101
-0.00389407
-0.007096
-0.0103929
-0.0138014
-0.0173429
-0.0210252
-0.025158
-0.0288097
-0.0269838
-0.0237163
-0.0199209
-0.0165447
-0.0133112
-0.0102169
-0.00723485
-0.00433749
-0.00151467
0.00122426
0.00385414
0.0063414
0.00865217
0.0107587
0.0126431
0.0142983
0.0157266
0.0169379
0.0179469
0.0187704
0.0194257
0.0199289
0.0202935
0.0205305
0.0206471
0.0206471
0.0205305
0.0202935
0.0199289
0.0194257
0.0187704
0.0179469
0.0169379
0.0157266
0.0142983
0.0126431
0.0107587
0.00865217
0.0063414
0.00385414
0.00122426
-0.00151467
-0.00433749
-0.00723485
-0.0102169
-0.0133112
-0.0165447
-0.0199209
-0.0237163
-0.0269838
-0.0250191
-0.0221258
-0.018664
-0.0155926
-0.0126652
-0.00988295
-0.00721515
-0.00462473
-0.00208915
0.000393722
0.00280683
0.00512015
0.00729896
0.00931135
0.0111332
0.0127506
0.0141593
0.0153635
0.0163732
0.0172019
0.0178641
0.0183743
0.018745
0.0189863
0.0191052
0.0191052
0.0189863
0.018745
0.0183743
0.0178641
0.0172019
0.0163732
0.0153635
0.0141593
0.0127506
0.0111332
0.00931135
0.00729896
0.00512015
0.00280683
0.000393722
-0.00208915
-0.00462473
-0.00721515
-0.00988295
-0.0126652
-0.0155926
-0.018664
-0.0221258
-0.0250191
-0.0229333
-0.0204045
-0.0172728
-0.0145058
-0.0118836
-0.00941142
-0.0070566
-0.00477388
-0.00252937
-0.000309608
0.00187692
0.00400464
0.00603904
0.00794492
0.00969267
0.0112618
0.0126418
0.013831
0.0148348
0.015663
0.0163277
0.0168414
0.0172155
0.0174594
0.0175797
0.0175797
0.0174594
0.0172155
0.0168414
0.0163277
0.015663
0.0148348
0.013831
0.0126418
0.0112618
0.00969267
0.00794492
0.00603904
0.00400464
0.00187692
-0.000309608
-0.00252937
-0.00477388
-0.0070566
-0.00941142
-0.0118836
-0.0145058
-0.0172728
-0.0204045
-0.0229333
-0.0207377
-0.0185647
-0.0157618
-0.0133005
-0.010984
-0.00882121
-0.0067782
-0.00480302
-0.00285156
-0.000899599
0.00105309
0.00298605
0.00486579
0.00665465
0.00831817
0.00982975
0.0111727
0.0123396
0.0133313
0.0141538
0.0148165
0.0153302
0.0157051
0.0159499
0.0160707
0.0160707
0.0159499
0.0157051
0.0153302
0.0148165
0.0141538
0.0133313
0.0123396
0.0111727
0.00982975
0.00831817
0.00665465
0.00486579
0.00298605
0.00105309
-0.000899599
-0.00285156
-0.00480302
-0.0067782
-0.00882121
-0.010984
-0.0133005
-0.0157618
-0.0185647
-0.0207377
-0.0184381
-0.0166139
-0.0141413
-0.0119893
-0.00998186
-0.00812975
-0.0063983
-0.0047302
-0.00307244
-0.00139093
0.000323103
0.00205458
0.00377171
0.00543504
0.00700581
0.00845178
0.00975019
0.0108883
0.0118619
0.0126736
0.0133302
0.0138404
0.0142135
0.0144574
0.0145778
0.0145778
0.0144574
0.0142135
0.0138404
0.0133302
0.0126736
0.0118619
0.0108883
0.00975019
0.00845178
0.00700581
0.00543504
0.00377171
0.00205458
0.000323103
-0.00139093
-0.00307244
-0.0047302
-0.0063983
-0.00812975
-0.00998186
-0.0119893
-0.0141413
-0.0166139
-0.0184381
-0.0160365
-0.0145553
-0.0124183
-0.0105823
-0.00889084
-0.00735355
-0.00593516
-0.00457404
-0.00320977
-0.00179951
-0.000326609
0.00119922
0.00274821
0.00427965
0.00575098
0.0071247
0.0083723
0.00947558
0.0104258
0.011222
0.0118682
0.0123716
0.0127402
0.0129813
0.0131005
0.0131005
0.0129813
0.0127402
0.0123716
0.0118682
0.011222
0.0104258
0.00947558
0.0083723
0.0071247
0.00575098
0.00427965
0.00274821
0.00119922
-0.000326609
-0.00179951
-0.00320977
-0.00457404
-0.00593516
-0.00735355
-0.00889084
-0.0105823
-0.0124183
-0.0145553
-0.0160365
-0.0135343
-0.0123884
-0.0105956
-0.00908523
-0.0077201
-0.00650521
-0.00540383
-0.00435072
-0.00327946
-0.00213997
-0.000908714
0.000409543
0.00178707
0.00318222
0.00454904
0.00584508
0.00703636
0.00809944
0.00902116
0.00979696
0.0104285
0.0109214
0.0112825
0.0115188
0.0116357
0.0116357
0.0115188
0.0112825
0.0109213
0.0104285
0.00979696
0.00902116
0.00809944
0.00703636
0.00584508
0.00454904
0.00318222
0.00178707
0.000409543
-0.000908714
-0.00213997
-0.00327946
-0.00435072
-0.00540383
-0.00650521
-0.0077201
-0.00908523
-0.0105956
-0.0123884
-0.0135343
-0.0109299
-0.0101011
-0.00865864
-0.00748278
-0.00645606
-0.00557441
-0.00479748
-0.00405639
-0.00327985
-0.00241195
-0.00142352
-0.000315091
0.000887452
0.00214165
0.00339845
0.0046108
0.00573952
0.00675616
0.00764327
0.00839302
0.0090048
0.00948268
0.00983295
0.0100621
0.0101754
0.0101754
0.0100621
0.00983295
0.00948268
0.0090048
0.00839302
0.00764327
0.00675616
0.00573952
0.0046108
0.00339846
0.00214165
0.000887452
-0.000315091
-0.00142352
-0.00241195
-0.00327985
-0.00405639
-0.00479748
-0.00557441
-0.00645606
-0.00748278
-0.00865864
-0.0101011
-0.0109299
-0.00821049
-0.00765398
-0.00655613
-0.00572191
-0.00505024
-0.00452082
-0.00408517
-0.0036691
-0.00319665
-0.00260728
-0.00186738
-0.000974122
4.80789e-05
0.00115592
0.00229737
0.0034209
0.00448224
0.00544793
0.00629626
0.00701612
0.00760468
0.00806466
0.00840172
0.00862213
0.00873114
0.00873114
0.00862213
0.00840172
0.00806466
0.00760468
0.00701612
0.00629626
0.00544793
0.00448224
0.0034209
0.00229737
0.00115592
4.80789e-05
-0.000974122
-0.00186738
-0.00260728
-0.00319665
-0.0036691
-0.00408517
-0.00452082
-0.00505024
-0.00572191
-0.00655613
-0.00765398
-0.00821049
-0.00539356
-0.00505375
-0.00431957
-0.00387726
-0.0036234
-0.00350629
-0.00345957
-0.00339966
-0.00324567
-0.00293449
-0.00243113
-0.00173253
-0.000864432
0.000126659
0.00118371
0.00224896
0.00327151
0.00421178
0.00504304
0.00575058
0.00632945
0.00678145
0.00711214
0.00732814
0.00743509
0.00743509
0.00732814
0.00711214
0.00678145
0.00632945
0.00575058
0.00504304
0.00421178
0.00327151
0.00224896
0.00118371
0.000126659
-0.000864432
-0.00173253
-0.00243113
-0.00293449
-0.00324567
-0.00339966
-0.00345957
-0.00350629
-0.0036234
-0.00387726
-0.00431957
-0.00505375
-0.00539356
-0.00275828
-0.00270973
-0.0025296
-0.00267051
-0.00299656
-0.00340852
-0.00381298
-0.00411566
-0.00423536
-0.00411528
-0.00373054
-0.00309007
-0.00223255
-0.00121768
-0.000115293
0.00100525
0.00208343
0.00307273
0.00394242
0.00467654
0.00527108
0.00573021
0.00606249
0.00627742
0.00638292
0.00638292
0.00627742
0.00606249
0.00573021
0.00527108
0.00467654
0.00394242
0.00307273
0.00208343
0.00100525
-0.000115293
-0.00121768
-0.00223255
-0.00309007
-0.00373054
-0.00411528
-0.00423536
-0.00411566
-0.00381298
-0.00340852
-0.00299656
-0.00267051
-0.0025296
-0.00270973
-0.00275828
-0.00103239
-0.00159218
-0.00223411
-0.00299781
-0.00378192
-0.00449844
-0.00506979
-0.00542691
-0.00551864
-0.00532076
-0.00484123
-0.00411929
-0.00321842
-0.00221484
-0.0011851
-0.000195466
0.000704647
0.00148491
0.00213261
0.00264889
0.00304407
0.00333308
0.00353178
0.00365413
0.00371062
0.00371062
0.00365413
0.00353178
0.00333308
0.00304407
0.00264889
0.00213261
0.00148491
0.000704647
-0.000195466
-0.0011851
-0.00221484
-0.00321842
-0.00411929
-0.00484123
-0.00532076
-0.00551864
-0.00542691
-0.00506979
-0.00449844
-0.00378192
-0.00299781
-0.00223411
-0.00159218
-0.00103239
)
;

boundaryField
{
    left
    {
        type            zeroGradient;
    }
    right
    {
        type            zeroGradient;
    }
    up
    {
        type            fixedValue;
        value           uniform 0;
    }
    down
    {
        type            zeroGradient;
    }
    frontAndBack
    {
        type            empty;
    }
}


// ************************************************************************* //
