/*--------------------------------*- C++ -*----------------------------------*\
  =========                 |
  \\      /  F ield         | OpenFOAM: The Open Source CFD Toolbox
   \\    /   O peration     | Website:  https://openfoam.org
    \\  /    A nd           | Version:  6
     \\/     M anipulation  |
\*---------------------------------------------------------------------------*/
FoamFile
{
    version     2.0;
    format      ascii;
    class       surfaceScalarField;
    location    "3200";
    object      phi;
}
// * * * * * * * * * * * * * * * * * * * * * * * * * * * * * * * * * * * * * //

dimensions      [0 3 -1 0 0 0 0];

internalField   nonuniform List<scalar> 
4900
(
-1.9357e-06
8.19357e-05
-6.86622e-06
8.49305e-05
-9.18706e-06
8.23208e-05
-1.047e-05
8.1283e-05
-1.10767e-05
8.06067e-05
-1.12388e-05
8.01621e-05
-1.11251e-05
7.98863e-05
-1.08337e-05
7.97086e-05
-1.04238e-05
7.959e-05
-9.93274e-06
7.9509e-05
-9.38505e-06
7.94523e-05
-8.79705e-06
7.9412e-05
-8.17993e-06
7.93829e-05
-7.54146e-06
7.93615e-05
-6.88716e-06
7.93457e-05
-6.22101e-06
7.93338e-05
-5.54589e-06
7.93249e-05
-4.86396e-06
7.93181e-05
-4.17685e-06
7.93129e-05
-3.4858e-06
7.93089e-05
-2.79178e-06
7.9306e-05
-2.09559e-06
7.93038e-05
-1.39787e-06
7.93023e-05
-6.9917e-07
7.93013e-05
1.50275e-16
7.93008e-05
6.9917e-07
7.93008e-05
1.39787e-06
7.93013e-05
2.09559e-06
7.93023e-05
2.79178e-06
7.93038e-05
3.4858e-06
7.9306e-05
4.17685e-06
7.93089e-05
4.86396e-06
7.93129e-05
5.54589e-06
7.93181e-05
6.22101e-06
7.93249e-05
6.88716e-06
7.93338e-05
7.54146e-06
7.93457e-05
8.17993e-06
7.93615e-05
8.79705e-06
7.93829e-05
9.38505e-06
7.9412e-05
9.93274e-06
7.94523e-05
1.04238e-05
7.9509e-05
1.08337e-05
7.959e-05
1.11251e-05
7.97086e-05
1.12388e-05
7.98863e-05
1.10767e-05
8.01621e-05
1.047e-05
8.06067e-05
9.18706e-06
8.1283e-05
6.86622e-06
8.23208e-05
1.9357e-06
8.49305e-05
8.19357e-05
5.52821e-06
7.64075e-05
3.24501e-06
8.72137e-05
-5.94487e-07
8.61603e-05
-3.65938e-06
8.43479e-05
-5.76696e-06
8.27143e-05
-7.11633e-06
8.15115e-05
-7.91033e-06
8.06803e-05
-8.30622e-06
8.01045e-05
-8.41777e-06
7.97016e-05
-8.32528e-06
7.94165e-05
-8.08515e-06
7.92122e-05
-7.73721e-06
7.90641e-05
-7.3098e-06
7.89555e-05
-6.82325e-06
7.8875e-05
-6.29233e-06
7.88148e-05
-5.72785e-06
7.87694e-05
-5.13783e-06
7.87349e-05
-4.52829e-06
7.87085e-05
-3.90382e-06
7.86884e-05
-3.26796e-06
7.86731e-05
-2.62352e-06
7.86615e-05
-1.97274e-06
7.8653e-05
-1.31751e-06
7.8647e-05
-6.59444e-07
7.86432e-05
4.35926e-16
7.86414e-05
6.59444e-07
7.86414e-05
1.31751e-06
7.86432e-05
1.97274e-06
7.8647e-05
2.62352e-06
7.8653e-05
3.26796e-06
7.86615e-05
3.90382e-06
7.86731e-05
4.52829e-06
7.86884e-05
5.13783e-06
7.87085e-05
5.72785e-06
7.87349e-05
6.29233e-06
7.87694e-05
6.82325e-06
7.88148e-05
7.3098e-06
7.8875e-05
7.73721e-06
7.89555e-05
8.08515e-06
7.90641e-05
8.32528e-06
7.92122e-05
8.41777e-06
7.94165e-05
8.30622e-06
7.97016e-05
7.91033e-06
8.01045e-05
7.11633e-06
8.06803e-05
5.76696e-06
8.15115e-05
3.65938e-06
8.27143e-05
5.94487e-07
8.43479e-05
-3.24501e-06
8.61603e-05
-5.52821e-06
8.72137e-05
7.64075e-05
7.5854e-06
6.88221e-05
8.02818e-06
8.67709e-05
4.70944e-06
8.94791e-05
1.22728e-06
8.783e-05
-1.58437e-06
8.55259e-05
-3.65663e-06
8.35837e-05
-5.08739e-06
8.21111e-05
-6.0111e-06
8.10282e-05
-6.54897e-06
8.02395e-05
-6.79737e-06
7.96649e-05
-6.82946e-06
7.92443e-05
-6.69976e-06
7.89344e-05
-6.44857e-06
7.87043e-05
-6.1057e-06
7.85321e-05
-5.69325e-06
7.84023e-05
-5.22773e-06
7.83038e-05
-4.72154e-06
7.82287e-05
-4.1841e-06
7.81711e-05
-3.62264e-06
7.8127e-05
-3.04282e-06
7.80933e-05
-2.44909e-06
7.80678e-05
-1.84511e-06
7.8049e-05
-1.23389e-06
7.80358e-05
-6.18067e-07
7.80274e-05
6.8657e-16
7.80233e-05
6.18067e-07
7.80233e-05
1.23389e-06
7.80274e-05
1.84511e-06
7.80358e-05
2.44909e-06
7.8049e-05
3.04282e-06
7.80678e-05
3.62264e-06
7.80933e-05
4.1841e-06
7.8127e-05
4.72154e-06
7.81711e-05
5.22773e-06
7.82287e-05
5.69325e-06
7.83038e-05
6.1057e-06
7.84023e-05
6.44857e-06
7.85321e-05
6.69976e-06
7.87043e-05
6.82946e-06
7.89344e-05
6.79737e-06
7.92443e-05
6.54897e-06
7.96649e-05
6.0111e-06
8.02395e-05
5.08739e-06
8.10282e-05
3.65663e-06
8.21111e-05
1.58437e-06
8.35837e-05
-1.22728e-06
8.55259e-05
-4.70944e-06
8.783e-05
-8.02818e-06
8.94791e-05
-7.5854e-06
8.67709e-05
6.88221e-05
8.00525e-06
6.08168e-05
9.93246e-06
8.48437e-05
7.72385e-06
9.16877e-05
4.56586e-06
9.0988e-05
1.59655e-06
8.84952e-05
-8.29285e-07
8.60096e-05
-2.6588e-06
8.39406e-05
-3.96014e-06
8.23296e-05
-4.82992e-06
8.11093e-05
-5.35972e-06
8.01947e-05
-5.62639e-06
7.95109e-05
-5.69103e-06
7.8999e-05
-5.60091e-06
7.86142e-05
-5.3922e-06
7.83234e-05
-5.0924e-06
7.81025e-05
-4.72244e-06
7.79339e-05
-4.29832e-06
7.78045e-05
-3.83232e-06
7.77051e-05
-3.33399e-06
7.76286e-05
-2.81083e-06
7.75701e-05
-2.26885e-06
7.75258e-05
-1.71292e-06
7.74931e-05
-1.14715e-06
7.74701e-05
-5.75104e-07
7.74554e-05
9.05472e-16
7.74482e-05
5.75104e-07
7.74482e-05
1.14715e-06
7.74554e-05
1.71292e-06
7.74701e-05
2.26885e-06
7.74931e-05
2.81083e-06
7.75258e-05
3.33399e-06
7.75701e-05
3.83232e-06
7.76286e-05
4.29832e-06
7.77051e-05
4.72244e-06
7.78045e-05
5.0924e-06
7.79339e-05
5.3922e-06
7.81025e-05
5.60091e-06
7.83234e-05
5.69103e-06
7.86142e-05
5.62639e-06
7.8999e-05
5.35972e-06
7.95109e-05
4.82992e-06
8.01947e-05
3.96014e-06
8.11093e-05
2.6588e-06
8.23296e-05
8.29285e-07
8.39406e-05
-1.59655e-06
8.60096e-05
-4.56586e-06
8.84952e-05
-7.72385e-06
9.0988e-05
-9.93246e-06
9.16877e-05
-8.00525e-06
8.48437e-05
6.08168e-05
7.43949e-06
5.33773e-05
1.02188e-05
8.20645e-05
9.20768e-06
9.26988e-05
6.7176e-06
9.34781e-05
3.93902e-06
9.12738e-05
1.43453e-06
8.8514e-05
-5.9919e-07
8.59743e-05
-2.1466e-06
8.3877e-05
-3.26113e-06
8.22238e-05
-4.01518e-06
8.09487e-05
-4.47913e-06
7.99749e-05
-4.71384e-06
7.92337e-05
-4.7691e-06
7.86694e-05
-4.6845e-06
7.82388e-05
-4.49106e-06
7.79091e-05
-4.21292e-06
7.76557e-05
-3.86882e-06
7.74604e-05
-3.47342e-06
7.73097e-05
-3.03818e-06
7.71934e-05
-2.57224e-06
7.71042e-05
-2.08292e-06
7.70365e-05
-1.57626e-06
7.69865e-05
-1.05734e-06
7.69511e-05
-5.3058e-07
7.69286e-05
1.09856e-15
7.69176e-05
5.3058e-07
7.69176e-05
1.05734e-06
7.69286e-05
1.57626e-06
7.69511e-05
2.08292e-06
7.69865e-05
2.57224e-06
7.70365e-05
3.03818e-06
7.71042e-05
3.47342e-06
7.71934e-05
3.86882e-06
7.73097e-05
4.21292e-06
7.74604e-05
4.49106e-06
7.76557e-05
4.6845e-06
7.79091e-05
4.7691e-06
7.82388e-05
4.71384e-06
7.86694e-05
4.47913e-06
7.92337e-05
4.01518e-06
7.99749e-05
3.26113e-06
8.09487e-05
2.1466e-06
8.22238e-05
5.9919e-07
8.3877e-05
-1.43453e-06
8.59743e-05
-3.93902e-06
8.8514e-05
-6.7176e-06
9.12738e-05
-9.20768e-06
9.34781e-05
-1.02188e-05
9.26988e-05
-7.43949e-06
8.20645e-05
5.33773e-05
6.43982e-06
4.69375e-05
9.66849e-06
7.88358e-05
9.71836e-06
9.26489e-05
8.00106e-06
9.51954e-05
5.60978e-06
9.36651e-05
3.21626e-06
9.09076e-05
1.12886e-06
8.80617e-05
-5.54589e-07
8.55604e-05
-1.83679e-06
8.3506e-05
-2.76237e-06
8.18743e-05
-3.38806e-06
8.06006e-05
-3.76914e-06
7.96148e-05
-3.95413e-06
7.88544e-05
-3.98347e-06
7.82682e-05
-3.88993e-06
7.78156e-05
-3.69967e-06
7.74655e-05
-3.43344e-06
7.71942e-05
-3.10767e-06
7.69839e-05
-2.73542e-06
7.68211e-05
-2.32716e-06
7.66959e-05
-1.89141e-06
7.66008e-05
-1.4352e-06
7.65302e-05
-9.64492e-07
7.64804e-05
-4.84509e-07
7.64486e-05
1.2775e-15
7.64331e-05
4.84509e-07
7.64331e-05
9.64492e-07
7.64486e-05
1.4352e-06
7.64804e-05
1.89141e-06
7.65302e-05
2.32716e-06
7.66008e-05
2.73542e-06
7.66959e-05
3.10767e-06
7.68211e-05
3.43344e-06
7.69839e-05
3.69967e-06
7.71942e-05
3.88993e-06
7.74655e-05
3.98347e-06
7.78156e-05
3.95413e-06
7.82682e-05
3.76914e-06
7.88544e-05
3.38806e-06
7.96148e-05
2.76237e-06
8.06006e-05
1.83679e-06
8.18743e-05
5.54589e-07
8.3506e-05
-1.12886e-06
8.55604e-05
-3.21626e-06
8.80617e-05
-5.60978e-06
9.09076e-05
-8.00106e-06
9.36651e-05
-9.71836e-06
9.51954e-05
-9.66849e-06
9.26489e-05
-6.43982e-06
7.88358e-05
4.69375e-05
5.37432e-06
4.15632e-05
8.77147e-06
7.54386e-05
9.64888e-06
9.17715e-05
8.67352e-06
9.61708e-05
6.75889e-06
9.55797e-05
4.59686e-06
9.30696e-05
2.56679e-06
9.00918e-05
8.36169e-07
8.7291e-05
-5.47515e-07
8.48897e-05
-1.59728e-06
8.29241e-05
-2.35172e-06
8.1355e-05
-2.85659e-06
8.01197e-05
-3.1561e-06
7.91539e-05
-3.28934e-06
7.84014e-05
-3.28924e-06
7.78155e-05
-3.18292e-06
7.73591e-05
-2.99232e-06
7.70036e-05
-2.73518e-06
7.67268e-05
-2.42575e-06
7.65117e-05
-2.07564e-06
7.63458e-05
-1.69433e-06
7.62195e-05
-1.28974e-06
7.61257e-05
-8.68612e-07
7.60593e-05
-4.36892e-07
7.60169e-05
1.45466e-15
7.59962e-05
4.36892e-07
7.59962e-05
8.68612e-07
7.60169e-05
1.28974e-06
7.60593e-05
1.69433e-06
7.61257e-05
2.07564e-06
7.62195e-05
2.42575e-06
7.63458e-05
2.73518e-06
7.65117e-05
2.99232e-06
7.67268e-05
3.18292e-06
7.70036e-05
3.28924e-06
7.73591e-05
3.28934e-06
7.78155e-05
3.1561e-06
7.84014e-05
2.85659e-06
7.91539e-05
2.35172e-06
8.01197e-05
1.59728e-06
8.1355e-05
5.47515e-07
8.29241e-05
-8.36169e-07
8.48897e-05
-2.56679e-06
8.7291e-05
-4.59686e-06
9.00918e-05
-6.75889e-06
9.30696e-05
-8.67352e-06
9.55797e-05
-9.64888e-06
9.61708e-05
-8.77147e-06
9.17715e-05
-5.37432e-06
7.54386e-05
4.15632e-05
4.40766e-06
3.71555e-05
7.79044e-06
7.20559e-05
9.25804e-06
9.03039e-05
8.93176e-06
9.6497e-05
7.51395e-06
9.69975e-05
5.65176e-06
9.49318e-05
3.75683e-06
9.19867e-05
2.04841e-06
8.89995e-05
6.18549e-07
8.63195e-05
-5.13934e-07
8.40565e-05
-1.36717e-06
8.22083e-05
-1.97479e-06
8.07273e-05
-2.37438e-06
7.95535e-05
-2.60182e-06
7.86288e-05
-2.68887e-06
7.79025e-05
-2.66257e-06
7.73329e-05
-2.54541e-06
7.68865e-05
-2.35589e-06
7.65372e-05
-2.10915e-06
7.6265e-05
-1.81763e-06
7.60543e-05
-1.49164e-06
7.58935e-05
-1.13984e-06
7.57739e-05
-7.69676e-07
7.56891e-05
-3.87719e-07
7.56349e-05
1.6477e-15
7.56085e-05
3.87719e-07
7.56085e-05
7.69676e-07
7.56349e-05
1.13984e-06
7.56891e-05
1.49164e-06
7.57739e-05
1.81763e-06
7.58935e-05
2.10915e-06
7.60543e-05
2.35589e-06
7.6265e-05
2.54541e-06
7.65372e-05
2.66257e-06
7.68865e-05
2.68887e-06
7.73329e-05
2.60182e-06
7.79025e-05
2.37438e-06
7.86288e-05
1.97479e-06
7.95535e-05
1.36717e-06
8.07273e-05
5.13934e-07
8.22083e-05
-6.18549e-07
8.40565e-05
-2.04841e-06
8.63195e-05
-3.75683e-06
8.89995e-05
-5.65176e-06
9.19867e-05
-7.51395e-06
9.49318e-05
-8.93176e-06
9.69975e-05
-9.25804e-06
9.6497e-05
-7.79044e-06
9.03039e-05
-4.40766e-06
7.20559e-05
3.71555e-05
3.59188e-06
3.35637e-05
6.85279e-06
6.87949e-05
8.71111e-06
8.84456e-05
8.9223e-06
9.62858e-05
7.98031e-06
9.79395e-05
6.44882e-06
9.64633e-05
4.74001e-06
9.36955e-05
3.10592e-06
9.06336e-05
1.67484e-06
8.77506e-05
4.95143e-07
8.52362e-05
-4.30293e-07
8.31337e-05
-1.12146e-06
8.14184e-05
-1.60766e-06
8.00397e-05
-1.92013e-06
7.89413e-05
-2.08831e-06
7.80707e-05
-2.13829e-06
7.73828e-05
-2.09246e-06
7.68406e-05
-1.96961e-06
7.64144e-05
-1.78544e-06
7.60808e-05
-1.55301e-06
7.58218e-05
-1.28325e-06
7.56237e-05
-9.85445e-07
7.54761e-05
-6.67637e-07
7.53713e-05
-3.36965e-07
7.53043e-05
1.87185e-15
7.52715e-05
3.36965e-07
7.52715e-05
6.67637e-07
7.53043e-05
9.85445e-07
7.53713e-05
1.28325e-06
7.54761e-05
1.55301e-06
7.56237e-05
1.78544e-06
7.58218e-05
1.96961e-06
7.60808e-05
2.09246e-06
7.64144e-05
2.13829e-06
7.68406e-05
2.08831e-06
7.73828e-05
1.92013e-06
7.80707e-05
1.60766e-06
7.89413e-05
1.12146e-06
8.00397e-05
4.30293e-07
8.14184e-05
-4.95143e-07
8.31337e-05
-1.67484e-06
8.52362e-05
-3.10592e-06
8.77506e-05
-4.74001e-06
9.06336e-05
-6.44882e-06
9.36955e-05
-7.98031e-06
9.64633e-05
-8.9223e-06
9.79395e-05
-8.71111e-06
9.62858e-05
-6.85279e-06
8.84456e-05
-3.59188e-06
6.87949e-05
3.35637e-05
2.9306e-06
3.06331e-05
6.01455e-06
6.5711e-05
8.11129e-06
8.63488e-05
8.75161e-06
9.56455e-05
8.24283e-06
9.84483e-05
7.04736e-06
9.76587e-05
5.5547e-06
9.51882e-05
4.03237e-06
9.21559e-05
2.63554e-06
8.91474e-05
1.43834e-06
8.64334e-05
4.63864e-07
8.41082e-05
-2.9363e-07
8.21759e-05
-8.54126e-07
8.06002e-05
-1.24312e-06
7.93303e-05
-1.48679e-06
7.83144e-05
-1.60954e-06
7.75056e-05
-1.63306e-06
7.68642e-05
-1.57605e-06
7.63574e-05
-1.45441e-06
7.59592e-05
-1.28159e-06
7.5649e-05
-1.06901e-06
7.54111e-05
-8.26444e-07
7.52335e-05
-5.6243e-07
7.51073e-05
-2.84598e-07
7.50264e-05
2.14532e-15
7.4987e-05
2.84598e-07
7.4987e-05
5.6243e-07
7.50264e-05
8.26444e-07
7.51073e-05
1.06901e-06
7.52335e-05
1.28159e-06
7.54111e-05
1.45441e-06
7.5649e-05
1.57605e-06
7.59592e-05
1.63306e-06
7.63574e-05
1.60954e-06
7.68642e-05
1.48679e-06
7.75056e-05
1.24312e-06
7.83144e-05
8.54126e-07
7.93303e-05
2.9363e-07
8.06002e-05
-4.63864e-07
8.21759e-05
-1.43834e-06
8.41082e-05
-2.63554e-06
8.64334e-05
-4.03237e-06
8.91474e-05
-5.5547e-06
9.21559e-05
-7.04736e-06
9.51882e-05
-8.24283e-06
9.76587e-05
-8.75161e-06
9.84483e-05
-8.11129e-06
9.56455e-05
-6.01455e-06
8.63488e-05
-2.9306e-06
6.5711e-05
3.06331e-05
2.408e-06
2.82251e-05
5.29401e-06
6.2825e-05
7.52049e-06
8.41224e-05
8.49512e-06
9.46709e-05
8.36818e-06
9.85752e-05
7.49781e-06
9.85291e-05
6.23565e-06
9.64503e-05
4.8504e-06
9.35411e-05
3.51493e-06
9.04829e-05
2.32451e-06
8.76238e-05
1.32077e-06
8.51119e-05
5.1209e-07
8.29846e-05
-1.11623e-07
8.12239e-05
-5.69384e-07
7.9788e-05
-8.83354e-07
7.86283e-05
-1.07564e-06
7.76979e-05
-1.16673e-06
7.69552e-05
-1.17483e-06
7.63655e-05
-1.11576e-06
7.59001e-05
-1.00317e-06
7.55364e-05
-8.4877e-07
7.52567e-05
-6.62728e-07
7.50474e-05
-4.53983e-07
7.48986e-05
-2.30583e-07
7.4803e-05
2.47965e-15
7.47564e-05
2.30583e-07
7.47564e-05
4.53983e-07
7.4803e-05
6.62728e-07
7.48986e-05
8.4877e-07
7.50474e-05
1.00317e-06
7.52567e-05
1.11576e-06
7.55364e-05
1.17483e-06
7.59001e-05
1.16673e-06
7.63655e-05
1.07564e-06
7.69552e-05
8.83354e-07
7.76979e-05
5.69384e-07
7.86283e-05
1.11623e-07
7.9788e-05
-5.1209e-07
8.12239e-05
-1.32077e-06
8.29846e-05
-2.32451e-06
8.51119e-05
-3.51493e-06
8.76238e-05
-4.8504e-06
9.04829e-05
-6.23565e-06
9.35411e-05
-7.49781e-06
9.64503e-05
-8.36818e-06
9.85291e-05
-8.49512e-06
9.85752e-05
-7.52049e-06
9.46709e-05
-5.29401e-06
8.41224e-05
-2.408e-06
6.2825e-05
2.82251e-05
2.00173e-06
2.62233e-05
4.69025e-06
6.01365e-05
6.97369e-06
8.18389e-05
8.20476e-06
9.34398e-05
8.40761e-06
9.83724e-05
7.84206e-06
9.90946e-05
6.81355e-06
9.74788e-05
5.58099e-06
9.47737e-05
4.32679e-06
9.17371e-05
3.16252e-06
8.87881e-05
2.14608e-06
8.61283e-05
1.29934e-06
8.38314e-05
6.22215e-07
8.19011e-05
1.02655e-07
8.03076e-05
-2.76936e-07
7.90079e-05
-5.35845e-07
7.79568e-05
-6.92924e-07
7.71123e-05
-7.65544e-07
7.64381e-05
-7.69205e-07
7.59038e-05
-7.17519e-07
7.54847e-05
-6.2237e-07
7.51616e-05
-4.94185e-07
7.49193e-05
-3.42224e-07
7.47466e-05
-1.74886e-07
7.46357e-05
2.88687e-15
7.45815e-05
1.74886e-07
7.45815e-05
3.42224e-07
7.46357e-05
4.94185e-07
7.47466e-05
6.2237e-07
7.49193e-05
7.17519e-07
7.51616e-05
7.69205e-07
7.54847e-05
7.65544e-07
7.59038e-05
6.92924e-07
7.64381e-05
5.35845e-07
7.71123e-05
2.76936e-07
7.79568e-05
-1.02655e-07
7.90079e-05
-6.22215e-07
8.03076e-05
-1.29934e-06
8.19011e-05
-2.14608e-06
8.38314e-05
-3.16252e-06
8.61283e-05
-4.32679e-06
8.87881e-05
-5.58099e-06
9.17371e-05
-6.81355e-06
9.47737e-05
-7.84206e-06
9.74788e-05
-8.40761e-06
9.90946e-05
-8.20476e-06
9.83724e-05
-6.97369e-06
9.34398e-05
-4.69025e-06
8.18389e-05
-2.00173e-06
6.01365e-05
2.62233e-05
1.68939e-06
2.45339e-05
4.19363e-06
5.76322e-05
6.4888e-06
7.95438e-05
7.91531e-06
9.20133e-05
8.39964e-06
9.78881e-05
8.11413e-06
9.93802e-05
7.31478e-06
9.82782e-05
6.24308e-06
9.58454e-05
5.08404e-06
9.28962e-05
3.96093e-06
8.99112e-05
2.94543e-06
8.71439e-05
2.07179e-06
8.4705e-05
1.3498e-06
8.26231e-05
7.74607e-07
8.08828e-05
3.33562e-07
7.9449e-05
1.06108e-08
7.82797e-05
-2.11105e-07
7.7334e-05
-3.47819e-07
7.65748e-05
-4.14464e-07
7.59704e-05
-4.24444e-07
7.54947e-05
-3.89667e-07
7.51268e-05
-3.20717e-07
7.48503e-05
-2.27094e-07
7.4653e-05
-1.17478e-07
7.45261e-05
3.36935e-15
7.4464e-05
1.17478e-07
7.4464e-05
2.27094e-07
7.45261e-05
3.20717e-07
7.4653e-05
3.89667e-07
7.48503e-05
4.24444e-07
7.51268e-05
4.14464e-07
7.54947e-05
3.47819e-07
7.59704e-05
2.11105e-07
7.65748e-05
-1.06108e-08
7.7334e-05
-3.33562e-07
7.82797e-05
-7.74607e-07
7.9449e-05
-1.3498e-06
8.08828e-05
-2.07179e-06
8.26231e-05
-2.94543e-06
8.4705e-05
-3.96093e-06
8.71439e-05
-5.08404e-06
8.99112e-05
-6.24308e-06
9.28962e-05
-7.31478e-06
9.58454e-05
-8.11413e-06
9.82782e-05
-8.39964e-06
9.93802e-05
-7.91531e-06
9.78881e-05
-6.4888e-06
9.20133e-05
-4.19363e-06
7.95438e-05
-1.68939e-06
5.76322e-05
2.45339e-05
1.45128e-06
2.30827e-05
3.79156e-06
5.52919e-05
6.0732e-06
7.72621e-05
7.64909e-06
9.04374e-05
8.37255e-06
9.71646e-05
8.34104e-06
9.94117e-05
7.76152e-06
9.88577e-05
6.85326e-06
9.67536e-05
5.79842e-06
9.3951e-05
4.72775e-06
9.09819e-05
3.72412e-06
8.81475e-05
2.83296e-06
8.55961e-05
2.07346e-06
8.33826e-05
1.44801e-06
8.15083e-05
9.49163e-07
7.99478e-05
5.64412e-07
7.86645e-05
2.79191e-07
7.76193e-05
7.86619e-08
7.67753e-05
-5.13247e-08
7.61004e-05
-1.23799e-07
7.55672e-05
-1.50565e-07
7.51536e-05
-1.42264e-07
7.4842e-05
-1.08557e-07
7.46193e-05
-5.83408e-08
7.44759e-05
3.92951e-15
7.44057e-05
5.83408e-08
7.44057e-05
1.08557e-07
7.44759e-05
1.42264e-07
7.46193e-05
1.50565e-07
7.4842e-05
1.23799e-07
7.51536e-05
5.13247e-08
7.55672e-05
-7.86619e-08
7.61004e-05
-2.79191e-07
7.67753e-05
-5.64412e-07
7.76193e-05
-9.49163e-07
7.86645e-05
-1.44801e-06
7.99478e-05
-2.07346e-06
8.15083e-05
-2.83296e-06
8.33826e-05
-3.72412e-06
8.55961e-05
-4.72775e-06
8.81475e-05
-5.79842e-06
9.09819e-05
-6.85326e-06
9.3951e-05
-7.76152e-06
9.67536e-05
-8.34104e-06
9.88577e-05
-8.37255e-06
9.94117e-05
-7.64909e-06
9.71646e-05
-6.0732e-06
9.04374e-05
-3.79156e-06
7.72621e-05
-1.45128e-06
5.52919e-05
2.30827e-05
1.27124e-06
2.18114e-05
3.47114e-06
5.3092e-05
5.72785e-06
7.50054e-05
7.41954e-06
8.87457e-05
8.34639e-06
9.62378e-05
8.5436e-06
9.92145e-05
8.17186e-06
9.92295e-05
7.42566e-06
9.74998e-05
6.48021e-06
9.48965e-05
5.47011e-06
9.1992e-05
4.48697e-06
8.91306e-05
3.58601e-06
8.64971e-05
2.79525e-06
8.41733e-05
2.12419e-06
8.21793e-05
1.57072e-06
8.05013e-05
1.1261e-06
7.91091e-05
7.78294e-07
7.79671e-05
5.14095e-07
7.70395e-05
3.20324e-07
7.62942e-05
1.8447e-07
7.57031e-05
9.49585e-08
7.52431e-05
4.11798e-08
7.48958e-05
1.3387e-08
7.46471e-05
2.52187e-09
7.44867e-05
4.55973e-15
7.44082e-05
-2.52187e-09
7.44082e-05
-1.3387e-08
7.44867e-05
-4.11798e-08
7.46471e-05
-9.49585e-08
7.48958e-05
-1.8447e-07
7.52431e-05
-3.20324e-07
7.57031e-05
-5.14095e-07
7.62942e-05
-7.78294e-07
7.70395e-05
-1.1261e-06
7.79671e-05
-1.57072e-06
7.91091e-05
-2.12419e-06
8.05013e-05
-2.79525e-06
8.21793e-05
-3.58601e-06
8.41733e-05
-4.48697e-06
8.64971e-05
-5.47011e-06
8.91306e-05
-6.48021e-06
9.1992e-05
-7.42566e-06
9.48965e-05
-8.17186e-06
9.74998e-05
-8.5436e-06
9.92295e-05
-8.34639e-06
9.92145e-05
-7.41954e-06
9.62378e-05
-5.72785e-06
8.87457e-05
-3.47114e-06
7.50054e-05
-1.27124e-06
5.3092e-05
2.18114e-05
1.13645e-06
2.0675e-05
3.22034e-06
5.10082e-05
5.44985e-06
7.27759e-05
7.23367e-06
8.69619e-05
8.33463e-06
9.51368e-05
8.73726e-06
9.88118e-05
8.56003e-06
9.94067e-05
7.97185e-06
9.8088e-05
7.13804e-06
9.57303e-05
6.1941e-06
9.29359e-05
5.2381e-06
9.00866e-05
4.33364e-06
8.74016e-05
3.51687e-06
8.49901e-05
2.80418e-06
8.2892e-05
2.19882e-06
8.11066e-05
1.69597e-06
7.9612e-05
1.28633e-06
7.83767e-05
9.58502e-07
7.73674e-05
7.00436e-07
7.65522e-05
5.00291e-07
7.59032e-05
3.46823e-07
7.53965e-05
2.29543e-07
7.50131e-05
1.38684e-07
7.47379e-05
6.50825e-08
7.45603e-05
5.25405e-15
7.44733e-05
-6.50825e-08
7.44733e-05
-1.38684e-07
7.45603e-05
-2.29543e-07
7.47379e-05
-3.46823e-07
7.50131e-05
-5.00291e-07
7.53965e-05
-7.00436e-07
7.59032e-05
-9.58502e-07
7.65522e-05
-1.28633e-06
7.73674e-05
-1.69597e-06
7.83767e-05
-2.19882e-06
7.9612e-05
-2.80418e-06
8.11066e-05
-3.51687e-06
8.2892e-05
-4.33364e-06
8.49901e-05
-5.2381e-06
8.74016e-05
-6.1941e-06
9.00866e-05
-7.13804e-06
9.29359e-05
-7.97185e-06
9.57303e-05
-8.56003e-06
9.8088e-05
-8.73726e-06
9.94067e-05
-8.33463e-06
9.88118e-05
-7.23367e-06
9.51368e-05
-5.44985e-06
8.69619e-05
-3.22034e-06
7.27759e-05
-1.13645e-06
5.10082e-05
2.0675e-05
1.0369e-06
1.96381e-05
3.02829e-06
4.90168e-05
5.23397e-06
7.05702e-05
7.09385e-06
8.51021e-05
8.34546e-06
9.38852e-05
8.93276e-06
9.82245e-05
8.93665e-06
9.94028e-05
8.50079e-06
9.85239e-05
7.77878e-06
9.64523e-05
6.90458e-06
9.38102e-05
5.98072e-06
9.10105e-05
5.07785e-06
8.83044e-05
4.23948e-06
8.58284e-05
3.48857e-06
8.36429e-05
2.83369e-06
8.17615e-05
2.27403e-06
8.01716e-05
1.80316e-06
7.88476e-05
1.41166e-06
7.77589e-05
1.08877e-06
7.68751e-05
8.23426e-07
7.61685e-05
6.04818e-07
7.56151e-05
4.22656e-07
7.51952e-05
2.67215e-07
7.48934e-05
1.2928e-07
7.46983e-05
5.99786e-15
7.46025e-05
-1.2928e-07
7.46025e-05
-2.67215e-07
7.46983e-05
-4.22656e-07
7.48934e-05
-6.04818e-07
7.51952e-05
-8.23426e-07
7.56151e-05
-1.08877e-06
7.61685e-05
-1.41166e-06
7.68751e-05
-1.80316e-06
7.77589e-05
-2.27403e-06
7.88476e-05
-2.83369e-06
8.01716e-05
-3.48857e-06
8.17615e-05
-4.23948e-06
8.36429e-05
-5.07785e-06
8.58284e-05
-5.98072e-06
8.83044e-05
-6.90458e-06
9.10105e-05
-7.77878e-06
9.38102e-05
-8.50079e-06
9.64523e-05
-8.93665e-06
9.85239e-05
-8.93276e-06
9.94028e-05
-8.34546e-06
9.82245e-05
-7.09385e-06
9.38852e-05
-5.23397e-06
8.51021e-05
-3.02829e-06
7.05702e-05
-1.0369e-06
4.90168e-05
1.96381e-05
9.64894e-07
1.86732e-05
2.88572e-06
4.7096e-05
5.07437e-06
6.83816e-05
7.00017e-06
8.31763e-05
8.38421e-06
9.25011e-05
9.13834e-06
9.74704e-05
9.31056e-06
9.92306e-05
9.02046e-06
9.8814e-05
8.40888e-06
9.70638e-05
7.60637e-06
9.46127e-05
6.71825e-06
9.18986e-05
5.8209e-06
8.92018e-05
4.96449e-06
8.66849e-05
4.17818e-06
8.44292e-05
3.47572e-06
8.2464e-05
2.86038e-06
8.0787e-05
2.32872e-06
7.93792e-05
1.87342e-06
7.82142e-05
1.48512e-06
7.72634e-05
1.15366e-06
7.65e-05
8.68737e-07
7.59001e-05
6.20346e-07
7.54436e-05
3.9886e-07
7.51149e-05
1.95051e-07
7.49021e-05
6.78154e-15
7.47976e-05
-1.95051e-07
7.47976e-05
-3.9886e-07
7.49021e-05
-6.20346e-07
7.51149e-05
-8.68737e-07
7.54436e-05
-1.15366e-06
7.59001e-05
-1.48512e-06
7.65e-05
-1.87342e-06
7.72634e-05
-2.32872e-06
7.82142e-05
-2.86038e-06
7.93792e-05
-3.47572e-06
8.0787e-05
-4.17818e-06
8.2464e-05
-4.96449e-06
8.44292e-05
-5.8209e-06
8.66849e-05
-6.71825e-06
8.92018e-05
-7.60637e-06
9.18986e-05
-8.40888e-06
9.46127e-05
-9.02046e-06
9.70638e-05
-9.31056e-06
9.8814e-05
-9.13834e-06
9.92306e-05
-8.38421e-06
9.74704e-05
-7.00017e-06
9.25011e-05
-5.07437e-06
8.31763e-05
-2.88572e-06
6.83816e-05
-9.64894e-07
4.7096e-05
1.86732e-05
9.13897e-07
1.77593e-05
2.78292e-06
4.52269e-05
4.96199e-06
6.62025e-05
6.94697e-06
8.11913e-05
8.44897e-06
9.09991e-05
9.35456e-06
9.65648e-05
9.68333e-06
9.89018e-05
9.53233e-06
9.8965e-05
9.02911e-06
9.75671e-05
8.29948e-06
9.53423e-05
7.44998e-06
9.27481e-05
6.56162e-06
9.00901e-05
5.69044e-06
8.7556e-05
4.87139e-06
8.52483e-05
4.12331e-06
8.32121e-05
3.4535e-06
8.14568e-05
2.86161e-06
7.99711e-05
2.34251e-06
7.87333e-05
1.88839e-06
7.77176e-05
1.49005e-06
7.68984e-05
1.13784e-06
7.62523e-05
8.22055e-07
7.57594e-05
5.33243e-07
7.54037e-05
2.6221e-07
7.51731e-05
7.58496e-15
7.50598e-05
-2.6221e-07
7.50598e-05
-5.33243e-07
7.51731e-05
-8.22055e-07
7.54037e-05
-1.13784e-06
7.57594e-05
-1.49005e-06
7.62523e-05
-1.88839e-06
7.68984e-05
-2.34251e-06
7.77176e-05
-2.86161e-06
7.87333e-05
-3.4535e-06
7.99711e-05
-4.12331e-06
8.14568e-05
-4.87139e-06
8.32121e-05
-5.69044e-06
8.52483e-05
-6.56162e-06
8.7556e-05
-7.44998e-06
9.00901e-05
-8.29948e-06
9.27481e-05
-9.02911e-06
9.53423e-05
-9.53233e-06
9.75671e-05
-9.68333e-06
9.8965e-05
-9.35456e-06
9.89018e-05
-8.44897e-06
9.65648e-05
-6.94697e-06
9.09991e-05
-4.96199e-06
8.11913e-05
-2.78292e-06
6.62025e-05
-9.13897e-07
4.52269e-05
1.77593e-05
8.78945e-07
1.68803e-05
2.712e-06
4.33939e-05
4.88896e-06
6.40255e-05
6.92899e-06
7.91512e-05
8.53765e-06
8.93905e-05
9.58176e-06
9.55207e-05
1.00565e-05
9.84271e-05
1.0038e-05
9.89834e-05
9.64062e-06
9.79645e-05
8.9843e-06
9.59986e-05
8.17564e-06
9.35568e-05
7.29918e-06
9.09666e-05
6.41612e-06
8.84391e-05
5.5668e-06
8.60976e-05
4.77494e-06
8.40039e-05
4.05186e-06
8.21799e-05
3.40035e-06
8.06226e-05
2.81759e-06
7.9316e-05
2.29737e-06
7.82378e-05
1.83159e-06
7.73641e-05
1.41128e-06
7.66726e-05
1.02714e-06
7.61435e-05
6.69936e-07
7.57609e-05
3.30539e-07
7.55125e-05
8.39487e-15
7.53903e-05
-3.30539e-07
7.53903e-05
-6.69936e-07
7.55125e-05
-1.02714e-06
7.57609e-05
-1.41128e-06
7.61435e-05
-1.83159e-06
7.66726e-05
-2.29737e-06
7.73641e-05
-2.81759e-06
7.82378e-05
-3.40035e-06
7.9316e-05
-4.05186e-06
8.06226e-05
-4.77494e-06
8.21799e-05
-5.5668e-06
8.40039e-05
-6.41612e-06
8.60976e-05
-7.29918e-06
8.84391e-05
-8.17564e-06
9.09666e-05
-8.9843e-06
9.35568e-05
-9.64062e-06
9.59986e-05
-1.0038e-05
9.79645e-05
-1.00565e-05
9.89834e-05
-9.58176e-06
9.84271e-05
-8.53765e-06
9.55207e-05
-6.92899e-06
8.93905e-05
-4.88896e-06
7.91512e-05
-2.712e-06
6.40255e-05
-8.78945e-07
4.33939e-05
1.68803e-05
8.55884e-07
1.60244e-05
2.6657e-06
4.15841e-05
4.84728e-06
6.1844e-05
6.93985e-06
7.70587e-05
8.64641e-06
8.76839e-05
9.81826e-06
9.43488e-05
1.04296e-05
9.78158e-05
1.05376e-05
9.88754e-05
1.02433e-05
9.82587e-05
9.6604e-06
9.65816e-05
8.89432e-06
9.43228e-05
8.0323e-06
9.18286e-05
7.13998e-06
8.93314e-05
6.2627e-06
8.69749e-05
5.42884e-06
8.48378e-05
4.65373e-06
8.2955e-05
3.94332e-06
8.1333e-05
3.29715e-06
7.99622e-05
2.71073e-06
7.88242e-05
2.17713e-06
7.78977e-05
1.68813e-06
7.71616e-05
1.23491e-06
7.65968e-05
8.08463e-07
7.61873e-05
3.998e-07
7.59212e-05
9.19233e-15
7.57901e-05
-3.998e-07
7.57901e-05
-8.08463e-07
7.59212e-05
-1.23491e-06
7.61873e-05
-1.68813e-06
7.65968e-05
-2.17713e-06
7.71616e-05
-2.71073e-06
7.78977e-05
-3.29715e-06
7.88242e-05
-3.94332e-06
7.99622e-05
-4.65374e-06
8.1333e-05
-5.42884e-06
8.2955e-05
-6.2627e-06
8.48378e-05
-7.13998e-06
8.69749e-05
-8.0323e-06
8.93314e-05
-8.89432e-06
9.18286e-05
-9.6604e-06
9.43228e-05
-1.02433e-05
9.65816e-05
-1.05376e-05
9.82587e-05
-1.04296e-05
9.88754e-05
-9.81826e-06
9.78158e-05
-8.64641e-06
9.43488e-05
-6.93985e-06
8.76839e-05
-4.84728e-06
7.70587e-05
-2.6657e-06
6.1844e-05
-8.55884e-07
4.15841e-05
1.60244e-05
8.41094e-07
1.51834e-05
2.63705e-06
3.97881e-05
4.82842e-06
5.96526e-05
6.97163e-06
7.49154e-05
8.76905e-06
8.58865e-05
1.00596e-05
9.30583e-05
1.07995e-05
9.7076e-05
1.10285e-05
9.86464e-05
1.0835e-05
9.84522e-05
1.03254e-05
9.70912e-05
9.60346e-06
9.50447e-05
8.75827e-06
9.26738e-05
7.85927e-06
9.02304e-05
6.95636e-06
8.78778e-05
6.08242e-06
8.57117e-05
5.25668e-06
8.37807e-05
4.48827e-06
8.21014e-05
3.7792e-06
8.06713e-05
3.12673e-06
7.94767e-05
2.5252e-06
7.84993e-05
1.9672e-06
7.77196e-05
1.44444e-06
7.71195e-05
9.48219e-07
7.66835e-05
4.6969e-07
7.63997e-05
9.96465e-15
7.62598e-05
-4.6969e-07
7.62598e-05
-9.48219e-07
7.63997e-05
-1.44444e-06
7.66835e-05
-1.9672e-06
7.71195e-05
-2.5252e-06
7.77196e-05
-3.12673e-06
7.84993e-05
-3.7792e-06
7.94767e-05
-4.48827e-06
8.06713e-05
-5.25668e-06
8.21014e-05
-6.08242e-06
8.37807e-05
-6.95636e-06
8.57117e-05
-7.85927e-06
8.78778e-05
-8.75827e-06
9.02304e-05
-9.60346e-06
9.26738e-05
-1.03254e-05
9.50447e-05
-1.0835e-05
9.70912e-05
-1.10285e-05
9.84522e-05
-1.07995e-05
9.86464e-05
-1.00596e-05
9.7076e-05
-8.76905e-06
9.30583e-05
-6.97163e-06
8.58865e-05
-4.82842e-06
7.49154e-05
-2.63705e-06
5.96526e-05
-8.41094e-07
3.97881e-05
1.51834e-05
8.31432e-07
1.43519e-05
2.61956e-06
3.8e-05
4.82397e-06
5.74482e-05
7.01589e-06
7.27235e-05
8.89818e-06
8.40042e-05
1.02999e-05
9.16566e-05
1.11614e-05
9.62145e-05
1.15067e-05
9.83011e-05
1.14116e-05
9.85473e-05
1.09755e-05
9.75273e-05
1.02994e-05
9.57208e-05
9.4735e-06
9.34997e-05
8.57047e-06
9.11335e-05
7.64443e-06
8.88038e-05
6.73249e-06
8.66237e-05
5.85777e-06
8.46554e-05
5.03256e-06
8.29267e-05
4.26137e-06
8.14425e-05
3.54333e-06
8.01947e-05
2.87408e-06
7.91685e-05
2.24711e-06
7.83466e-05
1.65471e-06
7.77119e-05
1.08851e-06
7.72497e-05
5.3986e-07
7.69484e-05
1.06935e-14
7.67997e-05
-5.3986e-07
7.67997e-05
-1.08851e-06
7.69484e-05
-1.65471e-06
7.72497e-05
-2.24711e-06
7.77119e-05
-2.87408e-06
7.83466e-05
-3.54333e-06
7.91685e-05
-4.26137e-06
8.01947e-05
-5.03256e-06
8.14425e-05
-5.85777e-06
8.29267e-05
-6.73249e-06
8.46554e-05
-7.64443e-06
8.66237e-05
-8.57047e-06
8.88038e-05
-9.4735e-06
9.11335e-05
-1.02994e-05
9.34997e-05
-1.09755e-05
9.57208e-05
-1.14116e-05
9.75273e-05
-1.15067e-05
9.85473e-05
-1.11614e-05
9.83011e-05
-1.02999e-05
9.62145e-05
-8.89818e-06
9.16566e-05
-7.01589e-06
8.40042e-05
-4.82397e-06
7.27235e-05
-2.61956e-06
5.74482e-05
-8.31432e-07
3.8e-05
1.43519e-05
8.2419e-07
1.35277e-05
2.60734e-06
3.62168e-05
4.82588e-06
5.52296e-05
7.064e-06
7.04854e-05
9.02574e-06
8.20425e-05
1.05319e-05
9.01504e-05
1.15091e-05
9.52373e-05
1.19666e-05
9.78435e-05
1.19684e-05
9.85455e-05
1.16061e-05
9.78897e-05
1.09776e-05
9.63492e-05
1.01736e-05
9.43037e-05
9.26943e-06
9.20377e-05
8.32297e-06
8.97503e-05
7.37544e-06
8.75712e-05
6.45367e-06
8.55772e-05
5.57319e-06
8.38071e-05
4.74103e-06
8.22746e-05
3.95825e-06
8.09775e-05
3.22187e-06
7.99049e-05
2.52634e-06
7.90421e-05
1.86456e-06
7.83737e-05
1.22857e-06
7.78857e-05
6.09927e-07
7.7567e-05
1.13685e-14
7.74096e-05
-6.09927e-07
7.74096e-05
-1.22857e-06
7.7567e-05
-1.86456e-06
7.78857e-05
-2.52634e-06
7.83737e-05
-3.22187e-06
7.90421e-05
-3.95825e-06
7.99049e-05
-4.74103e-06
8.09775e-05
-5.57319e-06
8.22746e-05
-6.45367e-06
8.38071e-05
-7.37544e-06
8.55772e-05
-8.32297e-06
8.75712e-05
-9.26943e-06
8.97503e-05
-1.01736e-05
9.20377e-05
-1.09776e-05
9.43037e-05
-1.16061e-05
9.63492e-05
-1.19684e-05
9.78897e-05
-1.19666e-05
9.85455e-05
-1.15091e-05
9.78435e-05
-1.05319e-05
9.52373e-05
-9.02574e-06
9.01504e-05
-7.064e-06
8.20425e-05
-4.82588e-06
7.04854e-05
-2.60734e-06
5.52296e-05
-8.2419e-07
3.62168e-05
1.35277e-05
8.17082e-07
1.27106e-05
2.59517e-06
3.44388e-05
4.82675e-06
5.29981e-05
7.10766e-06
6.82045e-05
9.14349e-06
8.00066e-05
1.07481e-05
8.85458e-05
1.18358e-05
9.41496e-05
1.24022e-05
9.72771e-05
1.24995e-05
9.84481e-05
1.22116e-05
9.81776e-05
1.16329e-05
9.69279e-05
1.08537e-05
9.5083e-05
9.95148e-06
9.29399e-05
8.98766e-06
9.07141e-05
8.00724e-06
8.85516e-05
7.04077e-06
8.65437e-05
6.10692e-06
8.4741e-05
5.21533e-06
8.31662e-05
4.36904e-06
8.18238e-05
3.56652e-06
8.07074e-05