/*--------------------------------*- C++ -*----------------------------------*\
  =========                 |
  \\      /  F ield         | OpenFOAM: The Open Source CFD Toolbox
   \\    /   O peration     | Website:  https://openfoam.org
    \\  /    A nd           | Version:  6
     \\/     M anipulation  |
\*---------------------------------------------------------------------------*/
FoamFile
{
    version     2.0;
    format      ascii;
    class       volVectorField;
    location    "3200";
    object      U;
}
// * * * * * * * * * * * * * * * * * * * * * * * * * * * * * * * * * * * * * //

dimensions      [0 1 -1 0 0 0 0];

internalField   nonuniform List<vector> 
2500
(
(0.0735347 0.359265 5.30551e-18)
(0.137318 0.395615 -2.40883e-18)
(0.0878401 0.397817 8.41819e-19)
(0.0573494 0.399544 -2.16747e-19)
(0.0404533 0.399908 -6.25905e-19)
(0.0292359 0.39993 0)
(0.0216315 0.399942 -3.3296e-19)
(0.0163549 0.399951 3.33571e-19)
(0.01259 0.399959 -1.25647e-19)
(0.00984377 0.399966 1.25888e-19)
(0.00780123 0.399974 -1.01219e-19)
(0.00625455 0.399981 1.0141e-19)
(0.0050634 0.399986 8.54934e-20)
(0.004131 0.399992 -8.56457e-20)
(0.00338939 0.399996 7.49318e-20)
(0.00279005 0.4 -7.50557e-20)
(0.00229779 0.400003 3.3856e-20)
(0.0018867 0.400006 -1.39728e-21)
(0.0015374 0.400008 -1.14534e-21)
(0.00123516 0.40001 -3.1454e-20)
(0.000968524 0.400011 -1.49198e-20)
(0.000728439 0.400012 2.96006e-20)
(0.000507517 0.400013 -2.19228e-20)
(0.000299533 0.400014 1.08482e-20)
(9.90275e-05 0.400014 -3.60056e-21)
(-9.90275e-05 0.400014 -3.60056e-21)
(-0.000299533 0.400014 1.08482e-20)
(-0.000507517 0.400013 -2.19228e-20)
(-0.000728439 0.400012 2.96006e-20)
(-0.000968524 0.400011 -1.49198e-20)
(-0.00123516 0.40001 -3.1454e-20)
(-0.0015374 0.400008 -1.14534e-21)
(-0.0018867 0.400006 -1.39728e-21)
(-0.00229779 0.400003 3.3856e-20)
(-0.00279005 0.4 -7.50557e-20)
(-0.00338939 0.399996 7.49318e-20)
(-0.004131 0.399992 -8.56457e-20)
(-0.0050634 0.399986 8.54934e-20)
(-0.00625455 0.399981 1.0141e-19)
(-0.00780123 0.399974 -1.01219e-19)
(-0.00984377 0.399966 1.25888e-19)
(-0.01259 0.399959 -1.25647e-19)
(-0.0163549 0.399951 3.33571e-19)
(-0.0216315 0.399942 -3.3296e-19)
(-0.0292359 0.39993 0)
(-0.0404533 0.399908 -6.25905e-19)
(-0.0573494 0.399544 -2.16747e-19)
(-0.0878401 0.397817 8.41819e-19)
(-0.137318 0.395615 -2.40883e-18)
(-0.0735347 0.359265 -7.88303e-19)
(0.145766 0.400385 -2.22779e-18)
(0.269839 0.43757 2.41504e-18)
(0.196835 0.426753 0)
(0.144009 0.418555 0)
(0.107571 0.412551 0)
(0.0805818 0.40854 0)
(0.0611153 0.405952 0)
(0.0469859 0.404241 0)
(0.0365919 0.403082 0)
(0.0288465 0.402282 0)
(0.0229961 0.401719 0)
(0.0185158 0.401316 -1.25014e-19)
(0.0150364 0.401024 9.64164e-21)
(0.0122958 0.40081 1.15906e-19)
(0.0101058 0.40065 0)
(0.00832971 0.400531 0)
(0.00686694 0.40044 0)
(0.0056428 0.400372 0)
(0.00460092 0.400319 -4.27686e-20)
(0.00369816 0.400279 4.28441e-20)
(0.00290092 0.400249 0)
(0.00218243 0.400227 -2.00056e-20)
(0.00152085 0.400212 2.00348e-20)
(0.000897713 0.400202 0)
(0.00029681 0.400197 0)
(-0.00029681 0.400197 0)
(-0.000897713 0.400202 0)
(-0.00152085 0.400212 2.00348e-20)
(-0.00218243 0.400227 -2.00056e-20)
(-0.00290092 0.400249 0)
(-0.00369816 0.400279 4.28441e-20)
(-0.00460092 0.400319 -4.27686e-20)
(-0.0056428 0.400372 0)
(-0.00686694 0.40044 0)
(-0.00832971 0.400531 0)
(-0.0101058 0.40065 0)
(-0.0122958 0.40081 1.15906e-19)
(-0.0150364 0.401024 9.64164e-21)
(-0.0185158 0.401316 -1.25014e-19)
(-0.0229961 0.401719 0)
(-0.0288465 0.402282 0)
(-0.0365919 0.403082 0)
(-0.0469859 0.404241 0)
(-0.0611153 0.405952 0)
(-0.0805818 0.40854 0)
(-0.107571 0.412551 0)
(-0.144009 0.418555 0)
(-0.196835 0.426753 0)
(-0.269839 0.43757 2.41504e-18)
(-0.145766 0.400385 -2.22779e-18)
(0.162716 0.380313 -1.71936e-18)
(0.31579 0.450075 1.83757e-18)
(0.258398 0.450928 0)
(0.205748 0.440357 7.59134e-19)
(0.160698 0.429679 -1.47609e-19)
(0.124047 0.421483 -6.19475e-19)
(0.0961023 0.415615 4.38358e-19)
(0.0749873 0.41146 -2.48732e-19)
(0.0590208 0.408511 -1.90582e-19)
(0.0468865 0.406403 1.50438e-19)
(0.037588 0.404882 -1.50736e-19)
(0.0303904 0.403773 1.2515e-19)
(0.0247559 0.402956 -2.41332e-19)
(0.0202908 0.402349 1.16162e-19)
(0.0167062 0.401894 0)
(0.0137887 0.40155 9.68574e-20)
(0.0113792 0.401288 -9.70455e-20)
(0.00935828 0.401088 -4.45044e-20)
(0.00763529 0.400935 8.76418e-20)
(0.00614024 0.400818 -1.23393e-21)
(0.00481842 0.40073 -4.19642e-20)
(0.00362609 0.400665 2.01591e-20)
(0.00252741 0.40062 -2.01872e-20)
(0.00149207 0.400591 0)
(0.000493355 0.400577 0)
(-0.000493355 0.400577 0)
(-0.00149207 0.400591 0)
(-0.00252741 0.40062 -2.01872e-20)
(-0.00362609 0.400665 2.01591e-20)
(-0.00481842 0.40073 -4.19642e-20)
(-0.00614024 0.400818 -1.23393e-21)
(-0.00763529 0.400935 8.76418e-20)
(-0.00935828 0.401088 -4.45044e-20)
(-0.0113792 0.401288 -9.70455e-20)
(-0.0137887 0.40155 9.68574e-20)
(-0.0167062 0.401894 0)
(-0.0202908 0.402349 1.16162e-19)
(-0.0247559 0.402956 -2.41332e-19)
(-0.0303904 0.403773 1.2515e-19)
(-0.037588 0.404882 -1.50736e-19)
(-0.0468865 0.406403 1.50438e-19)
(-0.0590208 0.408511 -1.90582e-19)
(-0.0749873 0.41146 -2.48732e-19)
(-0.0961023 0.415615 4.38358e-19)
(-0.124047 0.421483 -6.19475e-19)
(-0.160698 0.429679 -1.47609e-19)
(-0.205748 0.440357 7.59134e-19)
(-0.258398 0.450928 0)
(-0.31579 0.450075 1.83757e-18)
(-0.162716 0.380313 -1.71936e-18)
(0.156818 0.337249 1.71764e-18)
(0.320478 0.445166 -1.06323e-18)
(0.29007 0.468964 1.05793e-18)
(0.247331 0.461962 7.02374e-19)
(0.200982 0.449008 -1.25992e-19)
(0.159671 0.437304 -5.89581e-19)
(0.126304 0.428071 0)
(0.10004 0.421121 1.8707e-19)
(0.0796079 0.415978 -1.87402e-19)
(0.063757 0.41219 0)
(0.0514232 0.409394 -1.35749e-19)
(0.0417659 0.407321 1.3602e-19)
(0.0341395 0.405775 0)
(0.0280554 0.404614 -1.0839e-19)
(0.0231457 0.403737 2.10846e-19)
(0.0191334 0.403069 -1.0244e-19)
(0.0158091 0.402559 0)
(0.013014 0.402167 -4.47071e-20)
(0.010626 0.401867 8.80649e-20)
(0.00855041 0.401637 -4.33515e-20)
(0.00671284 0.401464 2.062e-20)
(0.0050535 0.401336 -2.06497e-20)
(0.00352322 0.401246 -1.00302e-20)
(0.00208029 0.401188 5.05879e-21)
(0.000687907 0.40116 4.98922e-21)
(-0.000687907 0.40116 4.98922e-21)
(-0.00208029 0.401188 5.05879e-21)
(-0.00352322 0.401246 -1.00302e-20)
(-0.0050535 0.401336 -2.06497e-20)
(-0.00671284 0.401464 2.062e-20)
(-0.00855041 0.401637 -4.33515e-20)
(-0.010626 0.401867 8.80649e-20)
(-0.013014 0.402167 -4.47071e-20)
(-0.0158091 0.402559 0)
(-0.0191334 0.403069 -1.0244e-19)
(-0.0231457 0.403737 2.10846e-19)
(-0.0280554 0.404614 -1.0839e-19)
(-0.0341395 0.405775 0)
(-0.0417659 0.407321 1.3602e-19)
(-0.0514232 0.409394 -1.35749e-19)
(-0.063757 0.41219 0)
(-0.0796079 0.415978 -1.87402e-19)
(-0.10004 0.421121 1.8707e-19)
(-0.126304 0.428071 0)
(-0.159671 0.437304 -5.89581e-19)
(-0.200982 0.449008 -1.25992e-19)
(-0.247331 0.461962 7.02374e-19)
(-0.29007 0.468964 1.05793e-18)
(-0.320478 0.445166 -1.06323e-18)
(-0.156818 0.337249 -1.71764e-18)
(0.143056 0.296887 -1.392e-18)
(0.305793 0.435383 0)
(0.301928 0.481477 0)
(0.272676 0.481217 6.4408e-19)
(0.229915 0.468458 -6.50811e-19)
(0.187844 0.454453 0)
(0.151676 0.442274 0)
(0.121972 0.432548 0)
(0.0981712 0.425055 0)
(0.0793007 0.419371 -1.47185e-19)
(0.0643767 0.415085 1.47486e-19)
(0.0525461 0.411853 0)
(0.0431144 0.409412 -1.15299e-19)
(0.0355346 0.40756 1.15528e-19)
(0.0293826 0.406149 0)
(0.0243322 0.405069 0)
(0.0201328 0.404239 0)
(0.0165915 0.4036 0)
(0.0135588 0.403108 0)
(0.0109178 0.402731 0)
(0.00857607 0.402446 0)
(0.00645877 0.402235 0)
(0.00450427 0.402086 0)
(0.00266005 0.401991 -5.01083e-21)
(0.000879704 0.401945 5.01607e-21)
(-0.000879704 0.401945 5.01607e-21)
(-0.00266005 0.401991 -5.01083e-21)
(-0.00450427 0.402086 0)
(-0.00645877 0.402235 0)
(-0.00857607 0.402446 0)
(-0.0109178 0.402731 0)
(-0.0135588 0.403108 0)
(-0.0165915 0.4036 0)
(-0.0201328 0.404239 0)
(-0.0243322 0.405069 0)
(-0.0293826 0.406149 0)
(-0.0355346 0.40756 1.15528e-19)
(-0.0431144 0.409412 -1.15299e-19)
(-0.0525461 0.411853 0)
(-0.0643767 0.415085 1.47486e-19)
(-0.0793007 0.419371 -1.47185e-19)
(-0.0981712 0.425055 0)
(-0.121972 0.432548 0)
(-0.151676 0.442274 0)
(-0.187844 0.454453 0)
(-0.229915 0.468458 -6.50811e-19)
(-0.272676 0.481217 6.4408e-19)
(-0.301928 0.481477 0)
(-0.305793 0.435383 0)
(-0.143056 0.296887 1.392e-18)
(0.126921 0.262711 -1.13413e-18)
(0.28261 0.423209 0)
(0.300768 0.48827 -6.96153e-19)
(0.285471 0.496769 6.96815e-19)
(0.249243 0.486523 0)
(0.209215 0.47168 0)
(0.172378 0.45731 0)
(0.14075 0.445109 1.76386e-19)
(0.114613 0.435317 -3.3612e-19)
(0.0934122 0.427667 1.59331e-19)
(0.076355 0.421769 -1.32511e-19)
(0.0626544 0.417248 1.32796e-19)
(0.0516201 0.413787 -1.14435e-19)
(0.0426813 0.411135 7.07641e-21)
(0.0353806 0.409097 1.07798e-19)
(0.029357 0.407527 0)
(0.0243282 0.406314 0)
(0.0200737 0.405376 0)
(0.0164206 0.404652 0)
(0.0132325 0.404095 4.24371e-20)
(0.0104005 0.403673 -4.24978e-20)
(0.00783636 0.40336 0)
(0.00546678 0.40314 0)
(0.00322916 0.402999 5.03248e-21)
(0.00106803 0.40293 -5.0374e-21)
(-0.00106803 0.40293 -5.0374e-21)
(-0.00322916 0.402999 5.03248e-21)
(-0.00546678 0.40314 0)
(-0.00783636 0.40336 0)
(-0.0104005 0.403673 -4.24978e-20)
(-0.0132325 0.404095 4.24371e-20)
(-0.0164206 0.404652 0)
(-0.0200737 0.405376 0)
(-0.0243282 0.406314 0)
(-0.029357 0.407527 0)
(-0.0353806 0.409097 1.07798e-19)
(-0.0426813 0.411135 7.07641e-21)
(-0.0516201 0.413787 -1.14435e-19)
(-0.0626544 0.417248 1.32796e-19)
(-0.076355 0.421769 -1.32511e-19)
(-0.0934122 0.427667 1.59331e-19)
(-0.114613 0.435317 -3.3612e-19)
(-0.14075 0.445109 1.76386e-19)
(-0.172378 0.45731 0)
(-0.209215 0.47168 0)
(-0.249243 0.486523 0)
(-0.285471 0.496769 6.96815e-19)
(-0.300768 0.48827 -6.96153e-19)
(-0.28261 0.423209 0)
(-0.126921 0.262711 1.13413e-18)
(0.111015 0.233837 0)
(0.256863 0.409267 0)
(0.291591 0.489965 0)
(0.289022 0.508331 0)
(0.260713 0.502415 0)
(0.224561 0.488149 0)
(0.188699 0.472484 1.87056e-19)
(0.156438 0.458286 -1.88846e-19)
(0.128902 0.446394 0)
(0.106029 0.436822 0)
(0.0872917 0.429274 1.30127e-19)
(0.0720314 0.423389 -9.48741e-21)
(0.059607 0.418823 -1.21207e-19)
(0.0494557 0.415286 -1.06768e-19)
(0.041108 0.412546 1.06978e-19)
(0.0341829 0.410421 4.83758e-20)
(0.028376 0.40877 -4.84617e-20)
(0.0234455 0.407487 4.48687e-20)
(0.0191995 0.406493 -4.49397e-20)
(0.0154851 0.405728 0)
(0.0121791 0.405145 0)
(0.00918109 0.404714 0)
(0.00640721 0.404408 0)
(0.00378555 0.404213 -5.04821e-21)
(0.0012522 0.404118 5.05278e-21)
(-0.0012522 0.404118 5.05278e-21)
(-0.00378555 0.404213 -5.04821e-21)
(-0.00640721 0.404408 0)
(-0.00918109 0.404714 0)
(-0.0121791 0.405145 0)
(-0.0154851 0.405728 0)
(-0.0191995 0.406493 -4.49397e-20)
(-0.0234455 0.407487 4.48687e-20)
(-0.028376 0.40877 -4.84617e-20)
(-0.0341829 0.410421 4.83758e-20)
(-0.041108 0.412546 1.06978e-19)
(-0.0494557 0.415286 -1.06768e-19)
(-0.059607 0.418823 -1.21207e-19)
(-0.0720314 0.423389 -9.48741e-21)
(-0.0872917 0.429274 1.30127e-19)
(-0.106029 0.436822 0)
(-0.128902 0.446394 0)
(-0.156438 0.458286 -1.88846e-19)
(-0.188699 0.472484 1.87056e-19)
(-0.224561 0.488149 0)
(-0.260713 0.502415 0)
(-0.289022 0.508331 0)
(-0.291591 0.489965 0)
(-0.256863 0.409267 0)
(-0.111015 0.233837 0)
(0.0966424 0.209809 -7.36398e-20)
(0.231633 0.394578 -7.27719e-19)
(0.277839 0.487773 -5.53126e-19)
(0.285998 0.516212 5.48985e-19)
(0.265905 0.515813 0)
(0.234687 0.503338 0)
(0.201005 0.487286 0)
(0.169169 0.471654 0)
(0.141059 0.457968 0)
(0.117123 0.446604 0)
(0.097144 0.437439 0)
(0.0806333 0.430165 1.18877e-19)
(0.0670359 0.424444 -2.30888e-19)
(0.0558245 0.419964 2.17658e-19)
(0.0465376 0.416463 -1.05896e-19)
(0.038788 0.413727 0)
(0.0322585 0.411591 -4.62936e-20)
(0.0266928 0.409924 4.63702e-20)
(0.0218845 0.408627 -4.35182e-20)
(0.017667 0.407625 4.35806e-20)
(0.0139053 0.406861 0)
(0.0104881 0.406294 -2.05513e-20)
(0.00732224 0.405892 2.05736e-20)
(0.00432729 0.405636 0)
(0.00143158 0.40551 0)
(-0.00143158 0.40551 0)
(-0.00432729 0.405636 0)
(-0.00732224 0.405892 2.05736e-20)
(-0.0104881 0.406294 -2.05513e-20)
(-0.0139053 0.406861 0)
(-0.017667 0.407625 4.35806e-20)
(-0.0218845 0.408627 -4.35182e-20)
(-0.0266928 0.409924 4.63702e-20)
(-0.0322585 0.411591 -4.62936e-20)
(-0.038788 0.413727 0)
(-0.0465376 0.416463 -1.05896e-19)
(-0.0558245 0.419964 2.17658e-19)
(-0.0670359 0.424444 -2.30888e-19)
(-0.0806333 0.430165 1.18877e-19)
(-0.097144 0.437439 0)
(-0.117123 0.446604 0)
(-0.141059 0.457968 0)
(-0.169169 0.471654 0)
(-0.201005 0.487286 0)
(-0.234687 0.503338 0)
(-0.265905 0.515813 0)
(-0.285998 0.516212 5.48985e-19)
(-0.277839 0.487773 -5.53126e-19)
(-0.231633 0.394578 -7.27719e-19)
(-0.0966424 0.209809 1.47093e-18)
(0.0842139 0.190143 5.10485e-20)
(0.208264 0.379976 6.19127e-19)
(0.261718 0.482838 0)
(0.278429 0.520906 0)
(0.266171 0.526668 0)
(0.240371 0.51694 0)
(0.209696 0.501343 1.65981e-19)
(0.17912 0.484874 -1.67596e-19)
(0.151144 0.46976 0)
(0.126698 0.456805 0)
(0.105889 0.446108 0)
(0.0884298 0.437466 0)
(0.0738765 0.430572 -1.09939e-19)
(0.0617608 0.425114 1.10188e-19)
(0.0516465 0.42081 0)
(0.0431532 0.417422 -4.77563e-20)
(0.0359603 0.414761 4.78409e-20)
(0.0298033 0.412675 0)
(0.0244656 0.411046 -4.34069e-20)
(0.0197705 0.409783 4.34672e-20)
(0.015573 0.408818 0)
(0.011753 0.4081 -2.05491e-20)
(0.00820877 0.407591 2.05701e-20)
(0.00485255 0.407266 0)
(0.00160556 0.407107 0)
(-0.00160556 0.407107 0)
(-0.00485255 0.407266 0)
(-0.00820877 0.407591 2.05701e-20)
(-0.011753 0.4081 -2.05491e-20)
(-0.015573 0.408818 0)
(-0.0197705 0.409783 4.34672e-20)
(-0.0244656 0.411046 -4.34069e-20)
(-0.0298033 0.412675 0)
(-0.0359603 0.414761 4.78409e-20)
(-0.0431532 0.417422 -4.77563e-20)
(-0.0516465 0.42081 0)
(-0.0617608 0.425114 1.10188e-19)
(-0.0738765 0.430572 -1.09939e-19)
(-0.0884298 0.437466 0)
(-0.105889 0.446108 0)
(-0.126698 0.456805 0)
(-0.151144 0.46976 0)
(-0.17912 0.484874 -1.67596e-19)
(-0.209696 0.501343 1.65981e-19)
(-0.240371 0.51694 0)
(-0.266171 0.526668 0)
(-0.278429 0.520906 0)
(-0.261718 0.482838 0)
(-0.208264 0.379976 6.19127e-19)
(-0.0842139 0.190143 -5.94068e-19)
(0.0736508 0.174137 5.41353e-19)
(0.187153 0.365906 -4.8195e-19)
(0.244585 0.476044 4.64373e-19)
(0.26781 0.522928 0)
(0.262634 0.53508 1.80588e-19)
(0.242333 0.528802 -1.81512e-19)
(0.215182 0.514396 0)
(0.186497 0.497674 0)
(0.159245 0.481535 1.35697e-19)
(0.134779 0.467234 -9.3519e-21)
(0.113524 0.455139 -1.28382e-19)
(0.0954031 0.445187 0)
(0.0801071 0.437134 0)
(0.0672432 0.430684 0)
(0.0564158 0.42555 -4.91856e-20)
(0.0472624 0.42148 4.92816e-20)
(0.0394679 0.418263 -4.5699e-20)
(0.0327657 0.415729 4.57731e-20)
(0.0269338 0.413741 0)
(0.0217883 0.412197 -2.11527e-20)
(0.0171768 0.411013 4.19682e-20)
(0.0129715 0.410131 -2.08123e-20)
(0.00906396 0.409504 1.01638e-20)
(0.00535966 0.409103 -1.52271e-20)
(0.00177361 0.408907 5.05847e-21)
(-0.00177361 0.408907 5.05847e-21)
(-0.00535966 0.409103 -1.52271e-20)
(-0.00906396 0.409504 1.01638e-20)
(-0.0129715 0.410131 -2.08123e-20)
(-0.0171768 0.411013 4.19682e-20)
(-0.0217883 0.412197 -2.11527e-20)
(-0.0269338 0.413741 0)
(-0.0327657 0.415729 4.57731e-20)
(-0.0394679 0.418263 -4.5699e-20)
(-0.0472624 0.42148 4.92816e-20)
(-0.0564158 0.42555 -4.91856e-20)
(-0.0672432 0.430684 0)
(-0.0801071 0.437134 0)
(-0.0954031 0.445187 0)
(-0.113524 0.455139 -1.28382e-19)
(-0.134779 0.467234 -9.3519e-21)
(-0.159245 0.481535 1.35697e-19)
(-0.186497 0.497674 0)
(-0.215182 0.514396 0)
(-0.242333 0.528802 -1.81512e-19)
(-0.262634 0.53508 1.80588e-19)
(-0.26781 0.522928 0)
(-0.244585 0.476044 4.64373e-19)
(-0.187153 0.365906 -4.8195e-19)
(-0.0736508 0.174137 -5.41353e-19)
(0.0646867 0.161057 -4.55031e-19)
(0.168246 0.352558 -4.19625e-19)
(0.22724 0.468035 4.03495e-19)
(0.255216 0.522754 0)
(0.256204 0.541234 0)
(0.241214 0.538878 0)
(0.217859 0.526275 0)
(0.191521 0.509848 -1.36563e-19)
(0.165471 0.493097 8.75182e-21)
(0.14141 0.477727 1.30136e-19)
(0.120056 0.464401 0)
(0.101546 0.453228 0)
(0.0857139 0.444054 0)
(0.0722562 0.43662 1.00962e-19)
(0.0608302 0.430646 -1.01187e-19)
(0.0511021 0.425874 0)
(0.0427697 0.422078 0)
(0.0355705 0.419072 0)
(0.0292812 0.416705 -4.29636e-20)
(0.0237142 0.414859 4.30193e-20)
(0.0187115 0.413441 0)
(0.01414 0.412382 0)
(0.0098852 0.411629 0)
(0.00584709 0.411146 0)
(0.00193521 0.41091 0)
(-0.00193521 0.41091 0)
(-0.00584709 0.411146 0)
(-0.00988519 0.411629 0)
(-0.01414 0.412382 0)
(-0.0187115 0.413441 0)
(-0.0237142 0.414859 4.30193e-20)
(-0.0292812 0.416705 -4.29636e-20)
(-0.0355705 0.419072 0)
(-0.0427697 0.422078 0)
(-0.0511021 0.425874 0)
(-0.0608302 0.430646 -1.01187e-19)
(-0.0722562 0.43662 1.00962e-19)
(-0.0857139 0.444054 0)
(-0.101546 0.453228 0)
(-0.120056 0.464401 0)
(-0.14141 0.477727 1.30136e-19)
(-0.165471 0.493097 8.75182e-21)
(-0.191521 0.509848 -1.36563e-19)
(-0.217859 0.526275 0)
(-0.241214 0.538878 0)
(-0.256204 0.541234 0)
(-0.255216 0.522754 0)
(-0.22724 0.468035 4.03495e-19)
(-0.168246 0.352558 -4.19625e-19)
(-0.0646867 0.161057 4.55031e-19)
(0.0570178 0.150263 -3.65724e-19)
(0.151297 0.339991 7.46767e-19)
(0.210136 0.459264 -3.49004e-19)
(0.241403 0.520791 0)
(0.247603 0.545342 -1.48458e-19)
(0.237574 0.547188 1.48649e-19)
(0.218103 0.536879 0)
(0.194418 0.52124 0)
(0.169944 0.504282 0)
(0.146651 0.488137 0)
(0.12551 0.473775 -1.11638e-19)
(0.106862 0.461498 1.12387e-19)
(0.09069 0.451264 -1.02657e-19)
(0.0767888 0.44287 1.03147e-19)
(0.0648782 0.43606 -4.76673e-20)
(0.0546612 0.430576 4.77731e-20)
(0.0458559 0.426185 4.47564e-20)
(0.0382093 0.42269 -1.22791e-21)
(0.031501 0.419927 -8.62891e-20)
(0.0255424 0.417764 6.35941e-20)
(0.0201728 0.416098 -2.09363e-20)
(0.015255 0.414851 -2.03518e-20)
(0.0106701 0.413963 1.02764e-20)
(0.00631344 0.413393 5.07657e-21)
(0.00208989 0.413114 5.02405e-21)
(-0.00208989 0.413114 5.02405e-21)
(-0.00631344 0.413393 5.07657e-21)
(-0.0106701 0.413963 1.02764e-20)
(-0.015255 0.414851 -2.03518e-20)
(-0.0201728 0.416098 -2.09363e-20)
(-0.0255424 0.417764 6.35941e-20)
(-0.031501 0.419927 -8.62891e-20)
(-0.0382093 0.42269 -1.22791e-21)
(-0.0458559 0.426185 4.47564e-20)
(-0.0546612 0.430576 4.77731e-20)
(-0.0648782 0.43606 -4.76673e-20)
(-0.0767888 0.44287 1.03147e-19)
(-0.09069 0.451264 -1.02657e-19)
(-0.106862 0.461498 1.12387e-19)
(-0.12551 0.473775 -1.11638e-19)
(-0.146651 0.488137 0)
(-0.169944 0.504282 0)
(-0.194418 0.52124 0)
(-0.218103 0.536879 0)
(-0.237574 0.547188 1.48649e-19)
(-0.247603 0.545342 -1.48458e-19)
(-0.241403 0.520791 0)
(-0.210136 0.459264 -3.49004e-19)
(-0.151297 0.339991 7.46767e-19)
(-0.0570178 0.150263 -3.65724e-19)
(0.0503634 0.141227 6.27381e-19)
(0.136008 0.328178 -1.1362e-20)
(0.193504 0.450024 -1.52808e-19)
(0.22689 0.517367 -1.43793e-19)
(0.237394 0.547616 1.33607e-19)
(0.231888 0.553794 -1.33521e-19)
(0.216256 0.546154 0)
(0.195408 0.531738 0)
(0.172795 0.51496 0)
(0.150569 0.498341 0)
(0.129915 0.483152 1.07093e-19)
(0.111361 0.469908 -2.11064e-19)
(0.0950345 0.458695 2.03483e-19)
(0.0808351 0.449383 -1.48311e-19)
(0.0685516 0.441753 9.50535e-20)
(0.0579314 0.435558 -4.68413e-20)
(0.0487187 0.430565 0)
(0.040675 0.426569 -4.31028e-20)
(0.033587 0.423395 8.53749e-20)
(0.027268 0.420903 -6.30008e-20)
(0.0215567 0.418977 2.07591e-20)
(0.0163136 0.417532 -2.0217e-20)
(0.0114166 0.416502 1.02017e-20)
(0.00675747 0.41584 5.04331e-21)
(0.00223726 0.415516 4.99407e-21)
(-0.00223725 0.415516 4.99407e-21)
(-0.00675747 0.41584 5.04331e-21)
(-0.0114166 0.416502 1.02017e-20)
(-0.0163136 0.417532 -2.0217e-20)
(-0.0215567 0.418977 2.07591e-20)
(-0.027268 0.420903 -6.30008e-20)
(-0.033587 0.423395 8.53749e-20)
(-0.040675 0.426569 -4.31028e-20)
(-0.0487187 0.430565 0)
(-0.0579314 0.435558 -4.68413e-20)
(-0.0685516 0.441753 9.50535e-20)
(-0.0808351 0.449383 -1.48311e-19)
(-0.0950345 0.458695 2.03483e-19)
(-0.111361 0.469908 -2.11064e-19)
(-0.129915 0.483152 1.07093e-19)
(-0.150569 0.498341 0)
(-0.172795 0.51496 0)
(-0.195408 0.531738 0)
(-0.216256 0.546154 0)
(-0.231888 0.553794 -1.33521e-19)
(-0.237394 0.547616 1.33607e-19)
(-0.22689 0.517367 -1.43793e-19)
(-0.193504 0.450024 -1.52808e-19)
(-0.136008 0.328178 -1.1362e-20)
(-0.0503634 0.141227 -1.03755e-20)
(0.0444882 0.133526 2.63759e-19)
(0.12209 0.317036 0)
(0.17745 0.440488 0)
(0.212029 0.512728 1.22608e-19)
(0.226015 0.548246 -1.65227e-21)
(0.224559 0.558773 -1.19244e-19)
(0.212627 0.55408 1.14299e-19)
(0.194702 0.541262 -2.26561e-19)
(0.174155 0.525025 2.20991e-19)
(0.153241 0.508228 -1.09469e-19)
(0.133311 0.492436 0)
(0.11506 0.478376 0)
(0.0987519 0.466281 0)
(0.0843928 0.456109 0)
(0.0718454 0.447687 4.55774e-20)
(0.0609063 0.440792 -1.31999e-21)
(0.0513518 0.435196 -4.45619e-20)
(0.042962 0.430692 0)
(0.0355342 0.427099 4.17112e-20)
(0.0288868 0.424266 -6.22883e-20)
(0.0228599 0.422072 2.0543e-20)
(0.0173132 0.420421 0)
(0.0121229 0.419243 0)
(0.00717809 0.418484 0)
(0.00237693 0.418113 0)
(-0.00237693 0.418113 0)
(-0.00717809 0.418484 0)
(-0.0121229 0.419243 0)
(-0.0173132 0.420421 0)
(-0.0228599 0.422072 2.0543e-20)
(-0.0288868 0.424266 -6.22883e-20)
(-0.0355342 0.427099 4.17112e-20)
(-0.042962 0.430692 0)
(-0.0513518 0.435196 -4.45619e-20)
(-0.0609063 0.440792 -1.31999e-21)
(-0.0718454 0.447687 4.55774e-20)
(-0.0843928 0.456109 0)
(-0.0987519 0.466281 0)
(-0.11506 0.478376 0)
(-0.133311 0.492436 0)
(-0.153241 0.508228 -1.09469e-19)
(-0.174155 0.525025 2.20991e-19)
(-0.194702 0.541262 -2.26561e-19)
(-0.212627 0.55408 1.14299e-19)
(-0.224559 0.558773 -1.19244e-19)
(-0.226015 0.548246 -1.65227e-21)
(-0.212029 0.512728 1.22608e-19)
(-0.17745 0.440488 0)
(-0.12209 0.317036 0)
(-0.0444882 0.133526 -2.63759e-19)
(0.039206 0.126822 1.06123e-19)
(0.109294 0.306455 1.47073e-22)
(0.162004 0.430741 -1.07424e-19)
(0.197058 0.507057 0)
(0.213803 0.547396 0)
(0.215923 0.56221 0)
(0.207492 0.56066 0)
(0.192501 0.549755 1.03399e-19)
(0.174157 0.534391 -2.05886e-19)
(0.154747 0.517708 2.0232e-19)
(0.135743 0.501539 -1.00549e-19)
(0.11798 0.486829 9.53459e-20)
(0.101851 0.473962 -4.94175e-20)
(0.0874637 0.462998 -4.67951e-20)
(0.0747571 0.453824 0)
(0.0635821 0.446247 0)
(0.0537506 0.440056 -4.25409e-20)
(0.0450659 0.435043 4.26546e-20)
(0.0373388 0.431025 2.05387e-20)
(0.0303954 0.427844 -2.05737e-20)
(0.0240794 0.425374 -2.0014e-20)
(0.0182515 0.423511 2.9949e-20)
(0.0127874 0.422178 -7.21186e-23)
(0.00757436 0.42132 -4.94875e-21)
(0.00250861 0.420899 -4.90667e-21)
(-0.00250861 0.420899 -4.90667e-21)
(-0.00757436 0.42132 -4.94875e-21)
(-0.0127874 0.422178 -7.21186e-23)
(-0.0182515 0.423511 2.9949e-20)
(-0.0240794 0.425374 -2.0014e-20)
(-0.0303954 0.427844 -2.05737e-20)
(-0.0373388 0.431025 2.05387e-20)
(-0.0450659 0.435043 4.26546e-20)
(-0.0537506 0.440056 -4.25409e-20)
(-0.0635821 0.446247 0)
(-0.0747571 0.453824 0)
(-0.0874637 0.462998 -4.67951e-20)
(-0.101851 0.473962 -4.94175e-20)
(-0.11798 0.486829 9.53459e-20)
(-0.135743 0.501539 -1.00549e-19)
(-0.154747 0.517708 2.0232e-19)
(-0.174157 0.534391 -2.05886e-19)
(-0.192501 0.549755 1.03399e-19)
(-0.207492 0.56066 0)
(-0.215923 0.56221 0)
(-0.213803 0.547396 0)
(-0.197058 0.507057 0)
(-0.162004 0.430741 -1.07424e-19)
(-0.109294 0.306455 1.47073e-22)
(-0.039206 0.126822 1.06123e-19)
(0.0343767 0.120849 0)
(0.0974201 0.29631 0)
(0.147162 0.420808 0)
(0.182137 0.50048 0)
(0.201018 0.5452 9.37202e-20)
(0.206257 0.564185 -1.87868e-19)
(0.201092 0.565909 -6.07495e-22)
(0.188989 0.557181 9.57501e-20)
(0.172928 0.54299 0)
(0.15517 0.5267 0)
(0.137261 0.510383 0)
(0.120151 0.495194 0)
(0.104346 0.481678 0)
(0.0900526 0.470003 0)
(0.0772873 0.460125 4.31174e-20)
(0.0659568 0.451895 -8.56279e-20)
(0.0559123 0.44512 4.24781e-20)
(0.0469833 0.439602 0)
(0.0389975 0.435157 0)
(0.031791 0.431626 -1.99302e-20)
(0.0252131 0.428874 1.99598e-20)
(0.0191269 0.426793 0)
(0.0134087 0.425302 9.72633e-21)
(0.00794551 0.424341 -9.7319e-21)
(0.00263204 0.423869 0)
(-0.00263204 0.423869 0)
(-0.00794551 0.424341 -9.7319e-21)
(-0.0134087 0.425302 9.72633e-21)
(-0.0191269 0.426793 0)
(-0.0252131 0.428874 1.99598e-20)
(-0.031791 0.431626 -1.99302e-20)
(-0.0389975 0.435157 0)
(-0.0469833 0.439602 0)
(-0.0559123 0.44512 4.24781e-20)
(-0.0659568 0.451895 -8.56279e-20)
(-0.0772873 0.460125 4.31174e-20)
(-0.0900526 0.470003 0)
(-0.104346 0.481678 0)
(-0.120151 0.495194 0)
(-0.137261 0.510383 0)
(-0.15517 0.5267 0)
(-0.172928 0.54299 0)
(-0.188989 0.557181 9.57501e-20)
(-0.201092 0.565909 -6.07495e-22)
(-0.206257 0.564185 -1.87868e-19)
(-0.201018 0.5452 9.37202e-20)
(-0.182137 0.50048 0)
(-0.147162 0.420808 0)
(-0.0974201 0.29631 0)
(-0.0343767 0.120849 0)
(0.0298992 0.115397 -6.61232e-20)
(0.0863139 0.286475 0)
(0.132905 0.410679 7.70448e-20)
(0.167378 0.493081 -7.48451e-20)
(0.187864 0.541764 0)
(0.195797 0.564772 0)
(0.193643 0.569849 8.63682e-20)
(0.184339 0.563514 -8.66311e-20)
(0.170594 0.550769 0)
(0.154594 0.535135 0)
(0.137917 0.518897 4.38974e-20)
(0.121601 0.503408 -4.4209e-20)
(0.106252 0.489372 0)
(0.0921676 0.477075 0)
(0.0794388 0.466553 0)
(0.0680304 0.457705 -4.11616e-20)
(0.0578355 0.450366 4.13143e-20)
(0.0487125 0.444351 0)
(0.0405084 0.439482 -1.97793e-20)
(0.0330718 0.435598 1.98203e-20)
(0.0262591 0.432561 0)
(0.0199379 0.430259 0)
(0.013986 0.428607 0)
(0.00829095 0.427539 0)
(0.00274702 0.427016 0)
(-0.00274702 0.427016 0)
(-0.00829095 0.427539 0)
(-0.013986 0.428607 0)
(-0.0199379 0.430259 0)
(-0.0262591 0.432561 0)
(-0.0330718 0.435598 1.98203e-20)
(-0.0405084 0.439482 -1.97793e-20)
(-0.0487125 0.444351 0)
(-0.0578355 0.450366 4.13143e-20)
(-0.0680304 0.457705 -4.11616e-20)
(-0.0794388 0.466553 0)
(-0.0921676 0.477075 0)
(-0.106252 0.489372 0)
(-0.121601 0.503408 -4.4209e-20)
(-0.137917 0.518897 4.38974e-20)
(-0.154594 0.535135 0)
(-0.170594 0.550769 0)
(-0.184339 0.563514 -8.66311e-20)
(-0.193643 0.569849 8.63682e-20)
(-0.195797 0.564772 0)
(-0.187864 0.541764 0)
(-0.167378 0.493081 -7.48451e-20)
(-0.132905 0.410679 7.70448e-20)
(-0.0863139 0.286475 0)
(-0.0298992 0.115397 6.61232e-20)
(0.0257041 0.110303 5.03979e-20)
(0.0758628 0.276829 -5.358e-20)
(0.119211 0.400318 0)
(0.152858 0.484913 0)
(0.174501 0.53717 -7.08357e-20)
(0.184735 0.564035 7.01669e-20)
(0.185331 0.572504 7.77393e-20)
(0.178705 0.568741 -7.78826e-20)
(0.167274 0.557682 0)
(0.153101 0.542954 4.12644e-20)
(0.137767 0.527018 -1.40089e-22)
(0.122367 0.51141 -4.17011e-20)
(0.107591 0.496991 -4.11025e-20)
(0.0938195 0.48417 5.88839e-22)
(0.081217 0.47307 6.22271e-22)
(0.0698051 0.463646 6.20433e-22)
(0.0595204 0.455768 4.00741e-20)
(0.0502526 0.44927 -1.95315e-20)
(0.0418704 0.443983 1.95851e-20)
(0.0342365 0.439747 -1.91712e-20)
(0.0272166 0.436423 1.92064e-20)
(0.0206836 0.433899 9.45951e-21)
(0.0145186 0.432082 -9.4703e-21)
(0.00861028 0.430907 0)
(0.0028534 0.430331 0)
(-0.0028534 0.430331 0)
(-0.00861028 0.430907 0)
(-0.0145186 0.432082 -9.4703e-21)
(-0.0206836 0.433899 9.45951e-21)
(-0.0272166 0.436423 1.92064e-20)
(-0.0342365 0.439747 -1.91712e-20)
(-0.0418704 0.443983 1.95851e-20)
(-0.0502526 0.44927 -1.95315e-20)
(-0.0595204 0.455768 4.00741e-20)
(-0.0698051 0.463646 6.20433e-22)
(-0.081217 0.47307 6.22271e-22)
(-0.0938195 0.48417 5.88839e-22)
(-0.107591 0.496991 -4.11025e-20)
(-0.122367 0.51141 -4.17011e-20)
(-0.137767 0.527018 -1.40089e-22)
(-0.153101 0.542954 4.12644e-20)
(-0.167274 0.557682 0)
(-0.178705 0.568741 -7.78826e-20)
(-0.185331 0.572504 7.77393e-20)
(-0.184735 0.564035 7.01669e-20)
(-0.174501 0.53717 -7.08357e-20)
(-0.152858 0.484913 0)
(-0.119211 0.400318 0)
(-0.0758628 0.276829 -5.358e-20)
(-0.0257041 0.110303 5.03979e-20)
(0.0217481 0.105437 0)
(0.0659914 0.267262 0)
(0.106065 0.389681 4.98133e-20)
(0.13864 0.476005 6.82597e-21)
(0.161061 0.53148 -5.40282e-20)
(0.173238 0.562028 0)
(0.176321 0.573899 0)
(0.172233 0.572852 0)
(0.163079 0.563695 0)
(0.150775 0.550107 0)
(0.136865 0.534688 0)
(0.122483 0.519142 3.9156e-20)
(0.108384 0.504482 -3.94128e-20)
(0.0950217 0.491243 3.90788e-20)
(0.0826291 0.479638 -3.92911e-20)
(0.0712845 0.469687 0)
(0.0609686 0.461301 0)
(0.0516042 0.454338 0)
(0.0430833 0.448641 0)
(0.0352847 0.444057 0)
(0.0280849 0.440449 0)
(0.0213637 0.4377 0)
(0.0150061 0.435718 0)
(0.00890326 0.434434 0)
(0.00295112 0.433804 0)
(-0.00295112 0.433804 0)
(-0.00890326 0.434434 0)
(-0.0150061 0.435718 0)
(-0.0213637 0.4377 0)
(-0.0280849 0.440449 0)
(-0.0352847 0.444057 0)
(-0.0430833 0.448641 0)
(-0.0516042 0.454338 0)
(-0.0609686 0.461301 0)
(-0.0712845 0.469687 0)
(-0.0826291 0.479638 -3.92911e-20)
(-0.0950217 0.491243 3.90788e-20)
(-0.108384 0.504482 -3.94128e-20)
(-0.122483 0.519142 3.9156e-20)
(-0.136865 0.534688 0)
(-0.150775 0.550107 0)
(-0.163079 0.563695 0)
(-0.172233 0.572852 0)
(-0.176321 0.573899 0)
(-0.173238 0.562028 0)
(-0.161061 0.53148 -5.40282e-20)
(-0.13864 0.476005 6.82597e-21)
(-0.106065 0.389681 4.98133e-20)
(-0.0659914 0.267262 0)
(-0.0217481 0.105437 0)
(0.0180086 0.100702 2.16229e-20)
(0.0566548 0.257685 -2.30912e-20)
(0.0934646 0.378727 0)
(0.124776 0.466377 -2.22049e-20)
(0.147654 0.524744 -3.65317e-21)
(0.161447 0.5588 -3.22061e-21)
(0.166761 0.574059 -2.66589e-21)
(0.165055 0.575843 -2.06956e-21)
(0.158118 0.568777 -1.50142e-21)
(0.147695 0.556545 -1.00396e-21)
(0.13527 0.541853 3.58427e-20)
(0.121989 0.52655 0)
(0.108656 0.511795 0)
(0.0957895 0.498248 0)
(0.0836843 0.486218 0)
(0.0724739 0.475795 0)
(0.0621831 0.466936 -1.85336e-20)
(0.0527687 0.45953 1.86021e-20)
(0.0441476 0.453437 0)
(0.0362165 0.448512 9.12836e-21)
(0.028864 0.444621 -9.14844e-21)
(0.0219778 0.441649 0)
(0.0154483 0.439502 0)
(0.00916979 0.438109 -2.25634e-21)
(0.00304014 0.437424 2.25832e-21)
(-0.00304014 0.437424 2.25832e-21)
(-0.00916979 0.438109 -2.25634e-21)
(-0.0154483 0.439502 0)
(-0.0219778 0.441649 0)
(-0.028864 0.444621 -9.14844e-21)
(-0.0362165 0.448512 9.12836e-21)
(-0.0441476 0.453437 0)
(-0.0527687 0.45953 1.86021e-20)
(-0.0621831 0.466936 -1.85336e-20)
(-0.0724739 0.475795 0)
(-0.0836843 0.486218 0)
(-0.0957895 0.498248 0)
(-0.108656 0.511795 0)
(-0.121989 0.52655 0)
(-0.13527 0.541853 3.58427e-20)
(-0.147695 0.556545 -1.00396e-21)
(-0.158118 0.568777 -1.50142e-21)
(-0.165055 0.575843 -2.06956e-21)
(-0.166761 0.574059 -2.66589e-21)
(-0.161447 0.5588 -3.22061e-21)
(-0.147654 0.524744 -3.65317e-21)
(-0.124776 0.466377 -2.22049e-20)