/*--------------------------------*- C++ -*----------------------------------*\
  =========                 |
  \\      /  F ield         | OpenFOAM: The Open Source CFD Toolbox
   \\    /   O peration     | Website:  https://openfoam.org
    \\  /    A nd           | Version:  6
     \\/     M anipulation  |
\*---------------------------------------------------------------------------*/
FoamFile
{
    version     2.0;
    format      ascii;
    class       volScalarField;
    location    "3200";
    object      Cx;
}
// * * * * * * * * * * * * * * * * * * * * * * * * * * * * * * * * * * * * * //

dimensions      [0 1 0 0 0 0 0];

internalField   nonuniform List<scalar> 
2500
(
-0.492852
-0.472736
-0.452619
-0.432503
-0.412386
-0.39227
-0.372154
-0.352037
-0.331921
-0.311804
-0.291688
-0.271572
-0.251455
-0.231339
-0.211222
-0.191106
-0.17099
-0.150873
-0.130757
-0.11064
-0.0905239
-0.0704074
-0.050291
-0.0301746
-0.0100582
0.0100582
0.0301746
0.050291
0.0704074
0.0905239
0.11064
0.130757
0.150873
0.17099
0.191106
0.211222
0.231339
0.251455
0.271572
0.291688
0.311804
0.331921
0.352037
0.372154
0.39227
0.412386
0.432503
0.452619
0.472736
0.492852
-0.498539
-0.47819
-0.457842
-0.437493
-0.417144
-0.396796
-0.376447
-0.356099
-0.33575
-0.315402
-0.295053
-0.274705
-0.254356
-0.234008
-0.213659
-0.193311
-0.172962
-0.152614
-0.132265
-0.111917
-0.0915683
-0.0712198
-0.0508713
-0.0305228
-0.0101743
0.0101743
0.0305228
0.0508713
0.0712198
0.0915683
0.111917
0.132265
0.152614
0.172962
0.193311
0.213659
0.234008
0.254356
0.274705
0.295053
0.315402
0.33575
0.356099
0.376447
0.396796
0.417144
0.437493
0.457842
0.47819
0.498539
-0.504204
-0.483625
-0.463045
-0.442465
-0.421885
-0.401305
-0.380726
-0.360146
-0.339566
-0.318986
-0.298407
-0.277827
-0.257247
-0.236667
-0.216088
-0.195508
-0.174928
-0.154348
-0.133768
-0.113189
-0.092609
-0.0720292
-0.0514494
-0.0308697
-0.0102899
0.0102899
0.0308697
0.0514494
0.0720292
0.092609
0.113189
0.133768
0.154348
0.174928
0.195508
0.216088
0.236667
0.257247
0.277827
0.298407
0.318986
0.339566
0.360146
0.380726
0.401305
0.421885
0.442465
0.463045
0.483625
0.504204
-0.509835
-0.489026
-0.468216
-0.447407
-0.426597
-0.405787
-0.384978
-0.364168
-0.343358
-0.322549
-0.301739
-0.28093
-0.26012
-0.23931
-0.218501
-0.197691
-0.176882
-0.156072
-0.135262
-0.114453
-0.0936432
-0.0728336
-0.052024
-0.0312144
-0.0104048
0.0104048
0.0312144
0.052024
0.0728336
0.0936432
0.114453
0.135262
0.156072
0.176882
0.197691
0.218501
0.23931
0.26012
0.28093
0.301739
0.322549
0.343358
0.364168
0.384978
0.405787
0.426597
0.447407
0.468216
0.489026
0.509835
-0.515417
-0.49438
-0.473342
-0.452305
-0.431267
-0.41023
-0.389193
-0.368155
-0.347118
-0.32608
-0.305043
-0.284005
-0.262968
-0.24193
-0.220893
-0.199856
-0.178818
-0.157781
-0.136743
-0.115706
-0.0946684
-0.073631
-0.0525936
-0.0315561
-0.0105187
0.0105187
0.0315561
0.0525936
0.073631
0.0946684
0.115706
0.136743
0.157781
0.178818
0.199856
0.220893
0.24193
0.262968
0.284005
0.305043
0.32608
0.347118
0.368155
0.389193
0.41023
0.431267
0.452305
0.473342
0.49438
0.515417
-0.520935
-0.499672
-0.47841
-0.457147
-0.435884
-0.414622
-0.393359
-0.372096
-0.350834
-0.329571
-0.308308
-0.287046
-0.265783
-0.24452
-0.223258
-0.201995
-0.180732
-0.15947
-0.138207
-0.116945
-0.0956819
-0.0744193
-0.0531566
-0.031894
-0.0106313
0.0106313
0.031894
0.0531566
0.0744193
0.0956819
0.116945
0.138207
0.15947
0.180732
0.201995
0.223258
0.24452
0.265783
0.287046
0.308308
0.329571
0.350834
0.372096
0.393359
0.414622
0.435884
0.457147
0.47841
0.499672
0.520935
-0.526373
-0.504888
-0.483404
-0.461919
-0.440434
-0.41895
-0.397465
-0.375981
-0.354496
-0.333011
-0.311527
-0.290042
-0.268558
-0.247073
-0.225588
-0.204104
-0.182619
-0.161135
-0.13965
-0.118165
-0.0966807
-0.0751961
-0.0537115
-0.0322269
-0.0107423
0.0107423
0.0322269
0.0537115
0.0751961
0.0966807
0.118165
0.13965
0.161135
0.182619
0.204104
0.225588
0.247073
0.268558
0.290042
0.311527
0.333011
0.354496
0.375981
0.397465
0.41895
0.440434
0.461919
0.483404
0.504888
0.526373
-0.531715
-0.510013
-0.48831
-0.466607
-0.444905
-0.423202
-0.401499
-0.379797
-0.358094
-0.336391
-0.314689
-0.292986
-0.271283
-0.249581
-0.227878
-0.206175
-0.184473
-0.16277
-0.141067
-0.119365
-0.097662
-0.0759593
-0.0542567
-0.032554
-0.0108513
0.0108513
0.032554
0.0542567
0.0759593
0.097662
0.119365
0.141067
0.16277
0.184473
0.206175
0.227878
0.249581
0.271283
0.292986
0.314689
0.336391
0.358094
0.379797
0.401499
0.423202
0.444905
0.466607
0.48831
0.510013
0.531715
-0.536945
-0.515029
-0.493113
-0.471197
-0.449281
-0.427365
-0.405448
-0.383532
-0.361616
-0.3397
-0.317784
-0.295868
-0.273952
-0.252036
-0.230119
-0.208203
-0.186287
-0.164371
-0.142455
-0.120539
-0.0986226
-0.0767065
-0.0547903
-0.0328742
-0.0109581
0.0109581
0.0328742
0.0547903
0.0767065
0.0986226
0.120539
0.142455
0.164371
0.186287
0.208203
0.230119
0.252036
0.273952
0.295868
0.317784
0.3397
0.361616
0.383532
0.405448
0.427365
0.449281
0.471197
0.493113
0.515029
0.536945
-0.542045
-0.51992
-0.497796
-0.475672
-0.453548
-0.431423
-0.409299
-0.387175
-0.365051
-0.342926
-0.320802
-0.298678
-0.276553
-0.254429
-0.232305
-0.210181
-0.188056
-0.165932
-0.143808
-0.121684
-0.0995592
-0.077435
-0.0553107
-0.0331864
-0.0110621
0.0110621
0.0331864
0.0553107
0.077435
0.0995592
0.121684
0.143808
0.165932
0.188056
0.210181
0.232305
0.254429
0.276553
0.298678
0.320802
0.342926
0.365051
0.387175
0.409299
0.431423
0.453548
0.475672
0.497796
0.51992
0.542045
-0.546995
-0.524669
-0.502342
-0.480016
-0.45769
-0.435363
-0.413037
-0.390711
-0.368384
-0.346058
-0.323732
-0.301405
-0.279079
-0.256753
-0.234426
-0.2121
-0.189774
-0.167447
-0.145121
-0.122795
-0.100468
-0.0781421
-0.0558158
-0.0334895
-0.0111632
0.0111632
0.0334895
0.0558158
0.0781421
0.100468
0.122795
0.145121
0.167447
0.189774
0.2121
0.234426
0.256753
0.279079
0.301405
0.323732
0.346058
0.368384
0.390711
0.413037
0.435363
0.45769
0.480016
0.502342
0.524669
0.546995
-0.551776
-0.529255
-0.506733
-0.484212
-0.46169
-0.439169
-0.416647
-0.394126
-0.371604
-0.349083
-0.326561
-0.30404
-0.281518
-0.258997
-0.236475
-0.213954
-0.191432
-0.168911
-0.14639
-0.123868
-0.101347
-0.0788251
-0.0563037
-0.0337822
-0.0112607
0.0112607
0.0337822
0.0563037
0.0788251
0.101347
0.123868
0.14639
0.168911
0.191432
0.213954
0.236475
0.258997
0.281518
0.30404
0.326561
0.349083
0.371604
0.394126
0.416647
0.439169
0.46169
0.484212
0.506733
0.529255
0.551776
-0.556367
-0.533658
-0.510949
-0.48824
-0.465531
-0.442822
-0.420114
-0.397405
-0.374696
-0.351987
-0.329278
-0.306569
-0.283861
-0.261152
-0.238443
-0.215734
-0.193025
-0.170316
-0.147607
-0.124899
-0.10219
-0.0794809
-0.0567721
-0.0340633
-0.0113544
0.0113544
0.0340633
0.0567721
0.0794809
0.10219
0.124899
0.147607
0.170316
0.193025
0.215734
0.238443
0.261152
0.283861
0.306569
0.329278
0.351987
0.374696
0.397405
0.420114
0.442822
0.465531
0.48824
0.510949
0.533658
0.556367
-0.560745
-0.537857
-0.51497
-0.492082
-0.469194
-0.446307
-0.423419
-0.400532
-0.377644
-0.354757
-0.331869
-0.308982
-0.286094
-0.263207
-0.240319
-0.217432
-0.194544
-0.171657
-0.148769
-0.125881
-0.102994
-0.0801064
-0.0572188
-0.0343313
-0.0114438
0.0114438
0.0343313
0.0572188
0.0801064
0.102994
0.125881
0.148769
0.171657
0.194544
0.217432
0.240319
0.263207
0.286094
0.308982
0.331869
0.354757
0.377644
0.400532
0.423419
0.446307
0.469194
0.492082
0.51497
0.537857
0.560745
-0.564886
-0.54183
-0.518773
-0.495717
-0.47266
-0.449603
-0.426547
-0.40349
-0.380434
-0.357377
-0.33432
-0.311264
-0.288207
-0.265151
-0.242094
-0.219038
-0.195981
-0.172924
-0.149868
-0.126811
-0.103755
-0.080698
-0.0576415
-0.0345849
-0.0115283
0.0115283
0.0345849
0.0576415
0.080698
0.103755
0.126811
0.149868
0.172924
0.195981
0.219038
0.242094
0.265151
0.288207
0.311264
0.33432
0.357377
0.380434
0.40349
0.426547
0.449603
0.47266
0.495717
0.518773
0.54183
0.564886
-0.568767
-0.545552
-0.522337
-0.499122
-0.475907
-0.452692
-0.429477
-0.406262
-0.383047
-0.359832
-0.336617
-0.313402
-0.290187
-0.266972
-0.243757
-0.220542
-0.197327
-0.174112
-0.150897
-0.127682
-0.104467
-0.0812525
-0.0580375
-0.0348225
-0.0116075
0.0116075
0.0348225
0.0580375
0.0812525
0.104467
0.127682
0.150897
0.174112
0.197327
0.220542
0.243757
0.266972
0.290187
0.313402
0.336617
0.359832
0.383047
0.406262
0.429477
0.452692
0.475907
0.499122
0.522337
0.545552
0.568767
-0.572362
-0.549
-0.525639
-0.502277
-0.478915
-0.455554
-0.432192
-0.40883
-0.385468
-0.362107
-0.338745
-0.315383
-0.292021
-0.26866
-0.245298
-0.221936
-0.198575
-0.175213
-0.151851
-0.128489
-0.105128
-0.081766
-0.0584043
-0.0350426
-0.0116809
0.0116809
0.0350426
0.0584043
0.081766
0.105128
0.128489
0.151851
0.175213
0.198575
0.221936
0.245298
0.26866
0.292021
0.315383
0.338745
0.362107
0.385468
0.40883
0.432192
0.455554
0.478915
0.502277
0.525639
0.549
0.572362
-0.575645
-0.552149
-0.528654
-0.505158
-0.481662
-0.458166
-0.434671
-0.411175
-0.387679
-0.364184
-0.340688
-0.317192
-0.293696
-0.270201
-0.246705
-0.223209
-0.199714
-0.176218
-0.152722
-0.129226
-0.105731
-0.082235
-0.0587393
-0.0352436
-0.0117479
0.0117479
0.0352436
0.0587393
0.082235
0.105731
0.129226
0.152722
0.176218
0.199714
0.223209
0.246705
0.270201
0.293696
0.317192
0.340688
0.364184
0.387679
0.411175
0.434671
0.458166
0.481662
0.505158
0.528654
0.552149
0.575645
-0.57859
-0.554974
-0.531358
-0.507742
-0.484126
-0.46051
-0.436895
-0.413279
-0.389663
-0.366047
-0.342431
-0.318815
-0.295199
-0.271583
-0.247967
-0.224351
-0.200735
-0.177119
-0.153503
-0.129888
-0.106272
-0.0826557
-0.0590398
-0.0354239
-0.011808
0.011808
0.0354239
0.0590398
0.0826557
0.106272
0.129888
0.153503
0.177119
0.200735
0.224351
0.247967
0.271583
0.295199
0.318815
0.342431
0.366047
0.389663
0.413279
0.436895
0.46051
0.484126
0.507742
0.531358
0.554974
0.57859
-0.581172
-0.557451
-0.533729
-0.510008
-0.486287
-0.462565
-0.438844
-0.415123
-0.391402
-0.36768
-0.343959
-0.320238
-0.296516
-0.272795
-0.249074
-0.225352
-0.201631
-0.17791
-0.154188
-0.130467
-0.106746
-0.0830246
-0.0593033
-0.035582
-0.0118607
0.0118607
0.035582
0.0593033
0.0830246
0.106746
0.130467
0.154188
0.17791
0.201631
0.225352
0.249074
0.272795
0.296516
0.320238
0.343959
0.36768
0.391402
0.415123
0.438844
0.462565
0.486287
0.510008
0.533729
0.557451
0.581172
-0.583367
-0.559556
-0.535745
-0.511934
-0.488123
-0.464313
-0.440502
-0.416691
-0.39288
-0.369069
-0.345258
-0.321447
-0.297636
-0.273825
-0.250014
-0.226204
-0.202393
-0.178582
-0.154771
-0.13096
-0.107149
-0.0833382
-0.0595273
-0.0357164
-0.0119055
0.0119055
0.0357164
0.0595273
0.0833382
0.107149
0.13096
0.154771
0.178582
0.202393
0.226204
0.250014
0.273825
0.297636
0.321447
0.345258
0.369069
0.39288
0.416691
0.440502
0.464313
0.488123
0.511934
0.535745
0.559556
0.583367
-0.585153
-0.561269
-0.537386
-0.513502
-0.489618
-0.465734
-0.44185
-0.417967
-0.394083
-0.370199
-0.346315
-0.322431
-0.298548
-0.274664
-0.25078
-0.226896
-0.203012
-0.179129
-0.155245
-0.131361
-0.107477
-0.0835933
-0.0597095
-0.0358257
-0.0119419
0.0119419
0.0358257
0.0597095
0.0835933
0.107477
0.131361
0.155245
0.179129
0.203012
0.226896
0.25078
0.274664
0.298548
0.322431
0.346315
0.370199
0.394083
0.417967
0.44185
0.465734
0.489618
0.513502
0.537386
0.561269
0.585153
-0.586511
-0.562572
-0.538633
-0.514693
-0.490754
-0.466815
-0.442876
-0.418936
-0.394997
-0.371058
-0.347119
-0.32318
-0.29924
-0.275301
-0.251362
-0.227423
-0.203483
-0.179544
-0.155605
-0.131666
-0.107727
-0.0837873
-0.0598481
-0.0359088
-0.0119696
0.0119696
0.0359088
0.0598481
0.0837873
0.107727
0.131666
0.155605
0.179544
0.203483
0.227423
0.251362
0.275301
0.29924
0.32318
0.347119
0.371058
0.394997
0.418936
0.442876
0.466815
0.490754
0.514693
0.538633
0.562572
0.586511
-0.587425
-0.563448
-0.539472
-0.515495
-0.491519
-0.467542
-0.443566
-0.419589
-0.395613
-0.371636
-0.34766
-0.323683
-0.299707
-0.27573
-0.251754
-0.227777
-0.203801
-0.179824
-0.155847
-0.131871
-0.107894
-0.0839179
-0.0599413
-0.0359648
-0.0119883
0.0119883
0.0359648
0.0599413
0.0839179
0.107894
0.131871
0.155847
0.179824
0.203801
0.227777
0.251754
0.27573
0.299707
0.323683
0.34766
0.371636
0.395613
0.419589
0.443566
0.467542
0.491519
0.515495
0.539472
0.563448
0.587425
-0.587885
-0.563889
-0.539894
-0.515899
-0.491904
-0.467908
-0.443913
-0.419918
-0.395922
-0.371927
-0.347932
-0.323936
-0.299941
-0.275946
-0.251951
-0.227955
-0.20396
-0.179965
-0.155969
-0.131974
-0.107979
-0.0839835
-0.0599882
-0.0359929
-0.0119976
0.0119976
0.0359929
0.0599882
0.0839835
0.107979
0.131974
0.155969
0.179965
0.20396
0.227955
0.251951
0.275946
0.299941
0.323936
0.347932
0.371927
0.395922
0.419918
0.443913
0.467908
0.491904
0.515899
0.539894
0.563889
0.587885
-0.587885
-0.563889
-0.539894
-0.515899
-0.491904
-0.467908
-0.443913
-0.419918
-0.395922
-0.371927
-0.347932
-0.323936
-0.299941
-0.275946
-0.251951
-0.227955
-0.20396
-0.179965
-0.155969
-0.131974
-0.107979
-0.0839835
-0.0599882
-0.0359929
-0.0119976
0.0119976
0.0359929
0.0599882
0.0839835
0.107979
0.131974
0.155969
0.179965
0.20396
0.227955
0.251951
0.275946
0.299941
0.323936
0.347932
0.371927
0.395922
0.419918
0.443913
0.467908
0.491904
0.515899
0.539894
0.563889
0.587885
-0.587425
-0.563448
-0.539472
-0.515495
-0.491519
-0.467542
-0.443566
-0.419589
-0.395613
-0.371636
-0.34766
-0.323683
-0.299707
-0.27573
-0.251754
-0.227777
-0.203801
-0.179824
-0.155847
-0.131871
-0.107894
-0.0839179
-0.0599413
-0.0359648
-0.0119883
0.0119883
0.0359648
0.0599413
0.0839179
0.107894
0.131871
0.155847
0.179824
0.203801
0.227777
0.251754
0.27573
0.299707
0.323683
0.34766
0.371636
0.395613
0.419589
0.443566
0.467542
0.491519
0.515495
0.539472
0.563448
0.587425
-0.586511
-0.562572
-0.538633
-0.514693
-0.490754
-0.466815
-0.442876
-0.418936
-0.394997
-0.371058
-0.347119
-0.32318
-0.29924
-0.275301
-0.251362
-0.227423
-0.203483
-0.179544
-0.155605
-0.131666
-0.107727
-0.0837873
-0.0598481
-0.0359088
-0.0119696
0.0119696
0.0359088
0.0598481
0.0837873
0.107727
0.131666
0.155605
0.179544
0.203483
0.227423
0.251362
0.275301
0.29924
0.32318
0.347119
0.371058
0.394997
0.418936
0.442876
0.466815
0.490754
0.514693
0.538633
0.562572
0.586511
-0.585153
-0.561269
-0.537386
-0.513502
-0.489618
-0.465734
-0.44185
-0.417967
-0.394083
-0.370199
-0.346315
-0.322431
-0.298548
-0.274664
-0.25078
-0.226896
-0.203012
-0.179129
-0.155245
-0.131361
-0.107477
-0.0835933
-0.0597095
-0.0358257
-0.0119419
0.0119419
0.0358257
0.0597095
0.0835933
0.107477
0.131361
0.155245
0.179129
0.203012
0.226896
0.25078
0.274664
0.298548
0.322431
0.346315
0.370199
0.394083
0.417967
0.44185
0.465734
0.489618
0.513502
0.537386
0.561269
0.585153
-0.583367
-0.559556
-0.535745
-0.511934
-0.488123
-0.464313
-0.440502
-0.416691
-0.39288
-0.369069
-0.345258
-0.321447
-0.297636
-0.273825
-0.250014
-0.226204
-0.202393
-0.178582
-0.154771
-0.13096
-0.107149
-0.0833382
-0.0595273
-0.0357164
-0.0119055
0.0119055
0.0357164
0.0595273
0.0833382
0.107149
0.13096
0.154771
0.178582
0.202393
0.226204
0.250014
0.273825
0.297636
0.321447
0.345258
0.369069
0.39288
0.416691
0.440502
0.464313
0.488123
0.511934
0.535745
0.559556
0.583367
-0.581172
-0.557451
-0.533729
-0.510008
-0.486287
-0.462565
-0.438844
-0.415123
-0.391402
-0.36768
-0.343959
-0.320238
-0.296516
-0.272795
-0.249074
-0.225352
-0.201631
-0.17791
-0.154188
-0.130467
-0.106746
-0.0830246
-0.0593033
-0.035582
-0.0118607
0.0118607
0.035582
0.0593033
0.0830246
0.106746
0.130467
0.154188
0.17791
0.201631
0.225352
0.249074
0.272795
0.296516
0.320238
0.343959
0.36768
0.391402
0.415123
0.438844
0.462565
0.486287
0.510008
0.533729
0.557451
0.581172
-0.57859
-0.554974
-0.531358
-0.507742
-0.484126
-0.46051
-0.436895
-0.413279
-0.389663
-0.366047
-0.342431
-0.318815
-0.295199
-0.271583
-0.247967
-0.224351
-0.200735
-0.177119
-0.153503
-0.129888
-0.106272
-0.0826557
-0.0590398
-0.0354239
-0.011808
0.011808
0.0354239
0.0590398
0.0826557
0.106272
0.129888
0.153503
0.177119
0.200735
0.224351
0.247967
0.271583
0.295199
0.318815
0.342431
0.366047
0.389663
0.413279
0.436895
0.46051
0.484126
0.507742
0.531358
0.554974
0.57859
-0.575645
-0.552149
-0.528654
-0.505158
-0.481662
-0.458166
-0.434671
-0.411175
-0.387679
-0.364184
-0.340688
-0.317192
-0.293696
-0.270201
-0.246705
-0.223209
-0.199714
-0.176218
-0.152722
-0.129226
-0.105731
-0.082235
-0.0587393
-0.0352436
-0.0117479
0.0117479
0.0352436
0.0587393
0.082235
0.105731
0.129226
0.152722
0.176218
0.199714
0.223209
0.246705
0.270201
0.293696
0.317192
0.340688
0.364184
0.387679
0.411175
0.434671
0.458166
0.481662
0.505158
0.528654
0.552149
0.575645
-0.572362
-0.549
-0.525639
-0.502277
-0.478915
-0.455554
-0.432192
-0.40883
-0.385468
-0.362107
-0.338745
-0.315383
-0.292021
-0.26866
-0.245298
-0.221936
-0.198575
-0.175213
-0.151851
-0.128489
-0.105128
-0.081766
-0.0584043
-0.0350426
-0.0116809
0.0116809
0.0350426
0.0584043
0.081766
0.105128
0.128489
0.151851
0.175213
0.198575
0.221936
0.245298
0.26866
0.292021
0.315383
0.338745
0.362107
0.385468
0.40883
0.432192
0.455554
0.478915
0.502277
0.525639
0.549
0.572362
-0.568767
-0.545552
-0.522337
-0.499122
-0.475907
-0.452692
-0.429477
-0.406262
-0.383047
-0.359832
-0.336617
-0.313402
-0.290187
-0.266972
-0.243757
-0.220542
-0.197327
-0.174112
-0.150897
-0.127682
-0.104467
-0.0812525
-0.0580375
-0.0348225
-0.0116075
0.0116075
0.0348225
0.0580375
0.0812525
0.104467
0.127682
0.150897
0.174112
0.197327
0.220542
0.243757
0.266972
0.290187
0.313402
0.336617
0.359832
0.383047
0.406262
0.429477
0.452692
0.475907
0.499122
0.522337
0.545552
0.568767
-0.564886
-0.54183
-0.518773
-0.495717
-0.47266
-0.449603
-0.426547
-0.40349
-0.380434
-0.357377
-0.33432
-0.311264
-0.288207
-0.265151
-0.242094
-0.219038
-0.195981
-0.172924
-0.149868
-0.126811
-0.103755
-0.080698
-0.0576415
-0.0345849
-0.0115283
0.0115283
0.0345849
0.0576415
0.080698
0.103755
0.126811
0.149868
0.172924
0.195981
0.219038
0.242094
0.265151
0.288207
0.311264
0.33432
0.357377
0.380434
0.40349
0.426547
0.449603
0.47266
0.495717
0.518773
0.54183
0.564886
-0.560745
-0.537857
-0.51497
-0.492082
-0.469194
-0.446307
-0.423419
-0.400532
-0.377644
-0.354757
-0.331869
-0.308982
-0.286094
-0.263207
-0.240319
-0.217432
-0.194544
-0.171657
-0.148769
-0.125881
-0.102994
-0.0801064
-0.0572188
-0.0343313
-0.0114438
0.0114438
0.0343313
0.0572188
0.0801064
0.102994
0.125881
0.148769
0.171657
0.194544
0.217432
0.240319
0.263207
0.286094
0.308982
0.331869
0.354757
0.377644
0.400532
0.423419
0.446307
0.469194
0.492082
0.51497
0.537857
0.560745
-0.556367
-0.533658
-0.510949
-0.48824
-0.465531
-0.442822
-0.420114
-0.397405
-0.374696
-0.351987
-0.329278
-0.306569
-0.283861
-0.261152
-0.238443
-0.215734
-0.193025
-0.170316
-0.147607
-0.124899
-0.10219
-0.0794809
-0.0567721
-0.0340633
-0.0113544
0.0113544
0.0340633
0.0567721
0.0794809
0.10219
0.124899
0.147607
0.170316
0.193025
0.215734
0.238443
0.261152
0.283861
0.306569
0.329278
0.351987
0.374696
0.397405
0.420114
0.442822
0.465531
0.48824
0.510949
0.533658
0.556367
-0.551776
-0.529255
-0.506733
-0.484212
-0.46169
-0.439169
-0.416647
-0.394126
-0.371604
-0.349083
-0.326561
-0.30404
-0.281518
-0.258997
-0.236475
-0.213954
-0.191432
-0.168911
-0.14639
-0.123868
-0.101347
-0.0788251
-0.0563037
-0.0337822
-0.0112607
0.0112607
0.0337822
0.0563037
0.0788251
0.101347
0.123868
0.14639
0.168911
0.191432
0.213954
0.236475
0.258997
0.281518
0.30404
0.326561
0.349083
0.371604
0.394126
0.416647
0.439169
0.46169
0.484212
0.506733
0.529255
0.551776
-0.546995
-0.524669
-0.502342
-0.480016
-0.45769
-0.435363
-0.413037
-0.390711
-0.368384
-0.346058
-0.323732
-0.301405
-0.279079
-0.256753
-0.234426
-0.2121
-0.189774
-0.167447
-0.145121
-0.122795
-0.100468
-0.0781421
-0.0558158
-0.0334895
-0.0111632
0.0111632
0.0334895
0.0558158
0.0781421
0.100468
0.122795
0.145121
0.167447
0.189774
0.2121
0.234426
0.256753
0.279079
0.301405
0.323732
0.346058
0.368384
0.390711
0.413037
0.435363
0.45769
0.480016
0.502342
0.524669
0.546995
-0.542045
-0.51992
-0.497796
-0.475672
-0.453548
-0.431423
-0.409299
-0.387175
-0.365051
-0.342926
-0.320802
-0.298678
-0.276553
-0.254429
-0.232305
-0.210181
-0.188056
-0.165932
-0.143808
-0.121684
-0.0995592
-0.077435
-0.0553107
-0.0331864
-0.0110621
0.0110621
0.0331864
0.0553107
0.077435
0.0995592
0.121684
0.143808
0.165932
0.188056
0.210181
0.232305
0.254429
0.276553
0.298678
0.320802
0.342926
0.365051
0.387175
0.409299
0.431423
0.453548
0.475672
0.497796
0.51992
0.542045
-0.536945
-0.515029
-0.493113
-0.471197
-0.449281
-0.427365
-0.405448
-0.383532
-0.361616
-0.3397
-0.317784
-0.295868
-0.273952
-0.252036
-0.230119
-0.208203
-0.186287
-0.164371
-0.142455
-0.120539
-0.0986226
-0.0767065
-0.0547903
-0.0328742
-0.0109581
0.0109581
0.0328742
0.0547903
0.0767065
0.0986226
0.120539
0.142455
0.164371
0.186287
0.208203
0.230119
0.252036
0.273952
0.295868
0.317784
0.3397
0.361616
0.383532
0.405448
0.427365
0.449281
0.471197
0.493113
0.515029
0.536945
-0.531715
-0.510013
-0.48831
-0.466607
-0.444905
-0.423202
-0.401499
-0.379797
-0.358094
-0.336391
-0.314689
-0.292986
-0.271283
-0.249581
-0.227878
-0.206175
-0.184473
-0.16277
-0.141067
-0.119365
-0.097662
-0.0759593
-0.0542567
-0.032554
-0.0108513
0.0108513
0.032554
0.0542567
0.0759593
0.097662
0.119365
0.141067
0.16277
0.184473
0.206175
0.227878
0.249581
0.271283
0.292986
0.314689
0.336391
0.358094
0.379797
0.401499
0.423202
0.444905
0.466607
0.48831
0.510013
0.531715
-0.526373
-0.504888
-0.483404
-0.461919
-0.440434
-0.41895
-0.397465
-0.375981
-0.354496
-0.333011
-0.311527
-0.290042
-0.268558
-0.247073
-0.225588
-0.204104
-0.182619
-0.161135
-0.13965
-0.118165
-0.0966807
-0.0751961
-0.0537115
-0.0322269
-0.0107423
0.0107423
0.0322269
0.0537115
0.0751961
0.0966807
0.118165
0.13965
0.161135
0.182619
0.204104
0.225588
0.247073
0.268558
0.290042
0.311527
0.333011
0.354496
0.375981
0.397465
0.41895
0.440434
0.461919
0.483404
0.504888
0.526373
-0.520935
-0.499672
-0.47841
-0.457147
-0.435884
-0.414622
-0.393359
-0.372096
-0.350834
-0.329571
-0.308308
-0.287046
-0.265783
-0.24452
-0.223258
-0.201995
-0.180732
-0.15947
-0.138207
-0.116945
-0.0956819
-0.0744193
-0.0531566
-0.031894
-0.0106313
0.0106313
0.031894
0.0531566
0.0744193
0.0956819
0.116945
0.138207
0.15947
0.180732
0.201995
0.223258
0.24452
0.265783
0.287046
0.308308
0.329571
0.350834
0.372096
0.393359
0.414622
0.435884
0.457147
0.47841
0.499672
0.520935
-0.515417
-0.49438
-0.473342
-0.452305
-0.431267
-0.41023
-0.389193
-0.368155
-0.347118
-0.32608
-0.305043
-0.284005
-0.262968
-0.24193
-0.220893
-0.199856
-0.178818
-0.157781
-0.136743
-0.115706
-0.0946684
-0.073631
-0.0525936
-0.0315561
-0.0105187
0.0105187
0.0315561
0.0525936
0.073631
0.0946684
0.115706
0.136743
0.157781
0.178818
0.199856
0.220893
0.24193
0.262968
0.284005
0.305043
0.32608
0.347118
0.368155
0.389193
0.41023
0.431267
0.452305
0.473342
0.49438
0.515417
-0.509835
-0.489026
-0.468216
-0.447407
-0.426597
-0.405787
-0.384978
-0.364168
-0.343358
-0.322549
-0.301739
-0.28093
-0.26012
-0.23931
-0.218501
-0.197691
-0.176882
-0.156072
-0.135262
-0.114453
-0.0936432
-0.0728336
-0.052024
-0.0312144
-0.0104048
0.0104048
0.0312144
0.052024
0.0728336
0.0936432
0.114453
0.135262
0.156072
0.176882
0.197691
0.218501
0.23931
0.26012
0.28093
0.301739
0.322549
0.343358
0.364168
0.384978
0.405787
0.426597
0.447407
0.468216
0.489026
0.509835
-0.504204
-0.483625
-0.463045
-0.442465
-0.421885
-0.401305
-0.380726
-0.360146
-0.339566
-0.318986
-0.298407
-0.277827
-0.257247
-0.236667
-0.216088
-0.195508
-0.174928
-0.154348
-0.133768
-0.113189
-0.092609
-0.0720292
-0.0514494
-0.0308697
-0.0102899
0.0102899
0.0308697
0.0514494
0.0720292
0.092609
0.113189
0.133768
0.154348
0.174928
0.195508
0.216088
0.236667
0.257247
0.277827
0.298407
0.318986
0.339566
0.360146
0.380726
0.401305
0.421885
0.442465
0.463045
0.483625
0.504204
-0.498539
-0.47819
-0.457842
-0.437493
-0.417144
-0.396796
-0.376447
-0.356099
-0.33575
-0.315402
-0.295053
-0.274705
-0.254356
-0.234008
-0.213659
-0.193311
-0.172962
-0.152614
-0.132265
-0.111917
-0.0915683
-0.0712198
-0.0508713
-0.0305228
-0.0101743
0.0101743
0.0305228
0.0508713
0.0712198
0.0915683
0.111917
0.132265
0.152614
0.172962
0.193311
0.213659
0.234008
0.254356
0.274705
0.295053
0.315402
0.33575
0.356099
0.376447
0.396796
0.417144
0.437493
0.457842
0.47819
0.498539
-0.492852
-0.472736
-0.452619
-0.432503
-0.412386
-0.39227
-0.372154
-0.352037
-0.331921
-0.311804
-0.291688
-0.271572
-0.251455
-0.231339
-0.211222
-0.191106
-0.17099
-0.150873
-0.130757
-0.11064
-0.0905239
-0.0704074
-0.050291
-0.0301746
-0.0100582
0.0100582
0.0301746
0.050291
0.0704074
0.0905239
0.11064
0.130757
0.150873
0.17099
0.191106
0.211222
0.231339
0.251455
0.271572
0.291688
0.311804
0.331921
0.352037
0.372154
0.39227
0.412386
0.432503
0.452619
0.472736
0.492852
)
;

boundaryField
{
    left
    {
        type            calculated;
        value           nonuniform List<scalar> 
50
(
-0.502905
-0.508707
-0.514489
-0.520235
-0.525931
-0.531561
-0.537111
-0.542562
-0.547899
-0.553103
-0.558154
-0.563033
-0.567718
-0.572186
-0.576412
-0.580373
-0.584041
-0.587391
-0.590397
-0.593032
-0.595272
-0.597095
-0.59848
-0.599413
-0.599882
-0.599882
-0.599413
-0.59848
-0.597095
-0.595272
-0.593032
-0.590397
-0.587391
-0.584041
-0.580373
-0.576412
-0.572186
-0.567718
-0.563033
-0.558154
-0.553103
-0.547899
-0.542562
-0.537111
-0.531561
-0.525931
-0.520235
-0.514489
-0.508707
-0.502905
)
;
    }
    right
    {
        type            calculated;
        value           nonuniform List<scalar> 
50
(
0.502905
0.508707
0.514489
0.520235
0.525931
0.531561
0.537111
0.542562
0.547899
0.553103
0.558154
0.563033
0.567718
0.572186
0.576412
0.580373
0.584041
0.587391
0.590397
0.593032
0.595272
0.597095
0.59848
0.599413
0.599882
0.599882
0.599413
0.59848
0.597095
0.595272
0.593032
0.590397
0.587391
0.584041
0.580373
0.576412
0.572186
0.567718
0.563033
0.558154
0.553103
0.547899
0.542562
0.537111
0.531561
0.525931
0.520235
0.514489
0.508707
0.502905
)
;
    }
    up
    {
        type            calculated;
        value           nonuniform List<scalar> 
50
(
-0.49
-0.47
-0.45
-0.43
-0.41
-0.39
-0.37
-0.35
-0.33
-0.31
-0.29
-0.27
-0.25
-0.23
-0.21
-0.19
-0.17
-0.15
-0.13
-0.11
-0.09
-0.07
-0.05
-0.03
-0.01
0.01
0.03
0.05
0.07
0.09
0.11
0.13
0.15
0.17
0.19
0.21
0.23
0.25
0.27
0.29
0.31
0.33
0.35
0.37
0.39
0.41
0.43
0.45
0.47
0.49
)
;
    }
    down
    {
        type            calculated;
        value           nonuniform List<scalar> 
50
(
-0.49
-0.47
-0.45
-0.43
-0.41
-0.39
-0.37
-0.35
-0.33
-0.31
-0.29
-0.27
-0.25
-0.23
-0.21
-0.19
-0.17
-0.15
-0.13
-0.11
-0.09
-0.07
-0.05
-0.03
-0.01
0.01
0.03
0.05
0.07
0.09
0.11
0.13
0.15
0.17
0.19
0.21
0.23
0.25
0.27
0.29
0.31
0.33
0.35
0.37
0.39
0.41
0.43
0.45
0.47
0.49
)
;
    }
    frontAndBack
    {
        type            empty;
    }
}


// ************************************************************************* //
