/*--------------------------------*- C++ -*----------------------------------*\
  =========                 |
  \\      /  F ield         | OpenFOAM: The Open Source CFD Toolbox
   \\    /   O peration     | Website:  https://openfoam.org
    \\  /    A nd           | Version:  6
     \\/     M anipulation  |
\*---------------------------------------------------------------------------*/
FoamFile
{
    version     2.0;
    format      ascii;
    class       volScalarField;
    location    "3200";
    object      p;
}
// * * * * * * * * * * * * * * * * * * * * * * * * * * * * * * * * * * * * * //

dimensions      [0 2 -2 0 0 0 0];

internalField   nonuniform List<scalar> 
2500
(
0.242301
0.11524
0.0806251
0.067049
0.0590121
0.0538596
0.0501389
0.047193
0.0447331
0.0426112
0.040743
0.0390783
0.037586
0.0362458
0.0350439
0.0339706
0.0330189
0.0321834
0.0314598
0.030845
0.0303363
0.0299317
0.0296296
0.0294288
0.0293286
0.0293286
0.0294288
0.0296296
0.0299317
0.0303363
0.030845
0.0314598
0.0321834
0.0330189
0.0339706
0.0350439
0.0362458
0.037586
0.0390783
0.040743
0.0426112
0.0447331
0.047193
0.0501389
0.0538596
0.0590121
0.067049
0.0806251
0.11524
0.242301
0.183212
0.120238
0.0873694
0.0708496
0.061427
0.0554337
0.0512293
0.0480006
0.0453604
0.0431147
0.0411558
0.0394212
0.0378727
0.0364861
0.0352451
0.0341386
0.0331583
0.0322983
0.0315541
0.030922
0.0303991
0.0299833
0.0296729
0.0294666
0.0293637
0.0293637
0.0294666
0.0296729
0.0299833
0.0303991
0.030922
0.0315541
0.0322983
0.0331583
0.0341386
0.0352451
0.0364861
0.0378727
0.0394212
0.0411558
0.0431147
0.0453604
0.0480006
0.0512293
0.0554337
0.061427
0.0708496
0.0873694
0.120238
0.183212
0.102208
0.105303
0.087952
0.0727847
0.0631946
0.0567779
0.052218
0.0487499
0.0459477
0.0435871
0.0415426
0.0397413
0.0381389
0.0367075
0.0354285
0.0342895
0.0332814
0.0323976
0.0316331
0.0309841
0.0304473
0.0300206
0.0297021
0.0294904
0.0293848
0.0293848
0.0294904
0.0297021
0.0300206
0.0304473
0.0309841
0.0316331
0.0323976
0.0332814
0.0342895
0.0354285
0.0367075
0.0381389
0.0397413
0.0415426
0.0435871
0.0459477
0.0487499
0.052218
0.0567779
0.0631946
0.0727847
0.087952
0.105303
0.102208
0.0535163
0.0830383
0.0815761
0.0715996
0.063535
0.0574509
0.052861
0.0492943
0.0463974
0.0439578
0.041849
0.0399947
0.0383478
0.0368785
0.035567
0.0343998
0.0333673
0.0324625
0.0316802
0.0310161
0.030467
0.0300306
0.0297048
0.0294884
0.0293804
0.0293804
0.0294884
0.0297048
0.0300306
0.030467
0.0310161
0.0316802
0.0324625
0.0333673
0.0343998
0.035567
0.0368785
0.0383478
0.0399947
0.041849
0.0439578
0.0463974
0.0492943
0.052861
0.0574509
0.063535
0.0715996
0.0815761
0.0830383
0.0535163
0.0300832
0.0643033
0.072595
0.0683258
0.0626452
0.0574635
0.0531569
0.049645
0.0467283
0.044248
0.0420956
0.0402002
0.0385162
0.0370137
0.0356729
0.0344799
0.0334248
0.0325004
0.0317012
0.0310229
0.0304623
0.0300166
0.0296841
0.0294631
0.0293529
0.0293529
0.0294631
0.0296841
0.0300166
0.0304623
0.0310229
0.0317012
0.0325004
0.0334248
0.0344799
0.0356729
0.0370137
0.0385162
0.0402002
0.0420956
0.044248
0.0467283
0.049645
0.0531569
0.0574635
0.0626452
0.0683258
0.072595
0.0643033
0.0300832
0.0196031
0.0508083
0.0638148
0.0641266
0.0609185
0.0569183
0.0531207
0.0498007
0.0469395
0.0444591
0.0422853
0.0403615
0.0386479
0.037117
0.0357498
0.034533
0.0334567
0.0325138
0.0316985
0.0310067
0.0304349
0.0299804
0.0296412
0.0294159
0.0293035
0.0293035
0.0294159
0.0296412
0.0299804
0.0304349
0.0310067
0.0316985
0.0325138
0.0334567
0.034533
0.0357498
0.037117
0.0386479
0.0403615
0.0422853
0.0444591
0.0469395
0.0498007
0.0531207
0.0569183
0.0609185
0.0641266
0.0638148
0.0508083
0.0196031
0.0158974
0.0416949
0.0562555
0.0597455
0.0587128
0.0559507
0.0527872
0.049762
0.0470237
0.0445837
0.0424122
0.040474
0.0387393
0.0371854
0.0357955
0.0345573
0.0334616
0.0325014
0.0316711
0.0309665
0.0303841
0.0299212
0.0295758
0.0293464
0.0292319
0.0292319
0.0293464
0.0295758
0.0299212
0.0303841
0.0309665
0.0316711
0.0325014
0.0334616
0.0345573
0.0357955
0.0371854
0.0387393
0.040474
0.0424122
0.0445837
0.0470237
0.049762
0.0527872
0.0559507
0.0587128
0.0597455
0.0562555
0.0416949
0.0158974
0.0158741
0.0360234
0.0502365
0.0556389
0.056325
0.0547116
0.0522184
0.0495488
0.0469841
0.0446195
0.0424729
0.0405345
0.0387877
0.0372165
0.0358078
0.034551
0.0334379
0.032462
0.0316178
0.0309013
0.0303091
0.0298384
0.0294872
0.0292538
0.0291374
0.0291374
0.0292538
0.0294872
0.0298384
0.0303091
0.0309013
0.0316178
0.032462
0.0334379
0.034551
0.0358078
0.0372165
0.0387877
0.0405345
0.0424729
0.0446195
0.0469841
0.0495488
0.0522184
0.0547116
0.056325
0.0556389
0.0502365
0.0360234
0.0158741
0.0177034
0.0329233
0.0457761
0.0520807
0.0539876
0.053345
0.0514897
0.0491952
0.0468342
0.044571
0.042468
0.0405421
0.0387916
0.037209
0.0357854
0.034513
0.0333846
0.0323945
0.0315378
0.0308105
0.0302092
0.0297313
0.0293746
0.0291377
0.0290195
0.0290195
0.0291377
0.0293746
0.0297313
0.0302092
0.0308105
0.0315378
0.0323945
0.0333846
0.034513
0.0357854
0.037209
0.0387916
0.0405421
0.042468
0.044571
0.0468342
0.0491952
0.0514897
0.053345
0.0539876
0.0520807
0.0457761
0.0329233
0.0177034
0.0203111
0.0316143
0.0427072
0.0491948
0.0518623
0.0519721
0.0506754
0.0487413
0.0465934
0.0444463
0.0424004
0.0404972
0.0387506
0.0371619
0.0357274
0.034442
0.0333006
0.0322981
0.0314301
0.030693
0.0300836
0.0295991
0.0292376
0.0289974
0.0288776
0.0288776
0.0289974
0.0292376
0.0295991
0.0300836
0.030693
0.0314301
0.0322981
0.0333006
0.034442
0.0357274
0.0371619
0.0387506
0.0404972
0.0424004
0.0444463
0.0465934
0.0487413
0.0506754
0.0519721
0.0518623
0.0491948
0.0427072
0.0316143
0.0203111
0.0231231
0.0314767
0.0407782
0.0469921
0.0500427
0.0506836
0.0498405
0.0482271
0.0462836
0.0442566
0.042275
0.0404018
0.0386649
0.0370745
0.0356326
0.0343371
0.0331848
0.0321716
0.0312939
0.0305482
0.0299315
0.0294413
0.0290754
0.0288323
0.028711
0.028711
0.0288323
0.0290754
0.0294413
0.0299315
0.0305482
0.0312939
0.0321716
0.0331848
0.0343371
0.0356326
0.0370745
0.0386649
0.0404018
0.042275
0.0442566
0.0462836
0.0482271
0.0498405
0.0506836
0.0500427
0.0469921
0.0407782
0.0314767
0.0231231
0.0258632
0.0320635
0.0397293
0.0454158
0.0485665
0.0495391
0.0490363
0.0476885
0.0459271
0.0440141
0.0420979
0.0402582
0.0385349
0.0369466
0.0355003
0.0341972
0.0330361
0.032014
0.031128
0.030375
0.0297521
0.0292568
0.0288871
0.0286415
0.028519
0.028519
0.0286415
0.0288871
0.0292568
0.0297521
0.030375
0.031128
0.032014
0.0330361
0.0341972
0.0355003
0.0369466
0.0385349
0.0402582
0.0420979
0.0440141
0.0459271
0.0476885
0.0490363
0.0495391
0.0485665
0.0454158
0.0397293
0.0320635
0.0258632
0.028416
0.0330708
0.0393305
0.0443769
0.0474318
0.0485705
0.0482991
0.0471548
0.0455438
0.043731
0.041876
0.0400697
0.0383619
0.036778
0.0353297
0.0340214
0.0328534
0.0318243
0.0309315
0.0301724
0.0295443
0.0290448
0.028672
0.0284244
0.0283008
0.0283008
0.0284244
0.028672
0.0290448
0.0295443
0.0301724
0.0309315
0.0318243
0.0328534
0.0340214
0.0353297
0.036778
0.0383619
0.0400697
0.041876
0.043731
0.0455438
0.0471548
0.0482991
0.0485705
0.0474318
0.0443769
0.0393305
0.0330708
0.028416
0.0307481
0.0343
0.0393936
0.0437769
0.0466116
0.0477877
0.0476505
0.0466474
0.0451505
0.0434186
0.0416155
0.0398396
0.0381471
0.0365687
0.0351203
0.0338085
0.0326357
0.0316012
0.0307032
0.0299393
0.0293072
0.0288045
0.0284293
0.02818
0.0280556
0.0280556
0.02818
0.0284293
0.0288045
0.0293072
0.0299393
0.0307032
0.0316012
0.0326357
0.0338085
0.0351203
0.0365687
0.0381471
0.0398396
0.0416155
0.0434186
0.0451505
0.0466474
0.0476505
0.0477877
0.0466116
0.0437769
0.0393936
0.0343
0.0307481
0.0328647
0.0356264
0.0397722
0.0435212
0.0460652
0.047184
0.0471
0.0461799
0.0447593
0.0430856
0.0413223
0.0395708
0.0378916
0.0363189
0.0348713
0.0335578
0.0323818
0.0313436
0.0304419
0.0296748
0.0290398
0.0285348
0.0281579
0.0279074
0.0277825
0.0277825
0.0279074
0.0281579
0.0285348
0.0290398
0.0296748
0.0304419
0.0313436
0.0323818
0.0335578
0.0348713
0.0363189
0.0378916
0.0395708
0.0413223
0.0430856
0.0447593
0.0461799
0.0471
0.047184
0.0460652
0.0435212
0.0397722
0.0356264
0.0328647
0.0347865
0.0369744
0.0403565
0.0435257
0.0457462
0.0467423
0.0466464
0.0457581
0.0443776
0.0427386
0.0410008
0.039266
0.0375965
0.0360285
0.0345823
0.0332682
0.0320905
0.0310503
0.0301467
0.0293776
0.0287411
0.0282348
0.0278569
0.0276059
0.0274806
0.0274806
0.0276059
0.0278569
0.0282348
0.0287411
0.0293776
0.0301467
0.0310503
0.0320905
0.0332682
0.0345823
0.0360285
0.0375965
0.039266
0.0410008
0.0427386
0.0443776
0.0457581
0.0466464
0.0467423
0.0457462
0.0435257
0.0403565
0.0369744
0.0347865
0.0365385
0.0383
0.0410665
0.043719
0.0456079
0.0464385
0.0462813
0.0453816
0.0440084
0.0423809
0.0406535
0.0389267
0.0372623
0.0356973
0.0342524
0.0329387
0.0317609
0.0307203
0.0298163
0.0290469
0.0284101
0.0279036
0.0275256
0.0272746
0.0271493
0.0271493
0.0272746
0.0275256
0.0279036
0.0284101
0.0290469
0.0298163
0.0307203
0.0317609
0.0329387
0.0342524
0.0356973
0.0372623
0.0389267
0.0406535
0.0423809
0.0440084
0.0453816
0.0462813
0.0464385
0.0456079
0.043719
0.0410665
0.0383
0.0365385
0.0381443
0.0395788
0.041845
0.0440424
0.0456063
0.0462457
0.0459905
0.0450446
0.0436501
0.0420129
0.0402814
0.0385533
0.036889
0.0353247
0.0338809
0.0325684
0.0313918
0.0303525
0.0294497
0.0286815
0.0280458
0.0275404
0.0271632
0.0269126
0.0267876
0.0267876
0.0269126
0.0271632
0.0275404
0.0280458
0.0286815
0.0294497
0.0303525
0.0313918
0.0325684
0.0338809
0.0353247
0.036889
0.0385533
0.0402814
0.0420129
0.0436501
0.0450446
0.0459905
0.0462457
0.0456063
0.0440424
0.041845
0.0395788
0.0381443
0.0396241
0.040798
0.042651
0.0444488
0.0457018
0.0461359
0.0457568
0.0447373
0.0432979
0.0416324
0.0398834
0.0381452
0.0364759
0.0349101
0.0334668
0.0321561
0.0309821
0.0299458
0.0290459
0.0282807
0.0276476
0.0271443
0.0267688
0.0265194
0.026395
0.026395
0.0265194
0.0267688
0.0271443
0.0276476
0.0282807
0.0290459
0.0299458
0.0309821
0.0321561
0.0334668
0.0349101
0.0364759
0.0381452
0.0398834
0.0416324
0.0432979
0.0447373
0.0457568
0.0461359
0.0457018
0.0444488
0.042651
0.040798
0.0396241
0.0409945
0.0419512
0.0434555
0.0449002
0.0458591
0.0460815
0.0455606
0.044447
0.0429436
0.0412344
0.0394565
0.0377004
0.0360216
0.034452
0.033009
0.0317009
0.030531
0.0294993
0.0286043
0.0278436
0.0272146
0.0267148
0.026342
0.0260945
0.025971
0.025971
0.0260945
0.026342
0.0267148
0.0272146
0.0278436
0.0286043
0.0294993
0.030531
0.0317009
0.033009
0.034452
0.0360216
0.0377004
0.0394565
0.0412344
0.0429436
0.044447
0.0455606
0.0460815
0.0458591
0.0449002
0.0434555
0.0419512
0.0409945
0.0422684
0.0430354
0.0442378
0.0453667
0.0460479
0.0460566
0.0453818
0.0441588
0.0425771
0.0408122
0.0389961
0.0372159
0.0355238
0.033949
0.0325061
0.0312017
0.0300374
0.0290122
0.0281239
0.0273696
0.0267464
0.0262514
0.0258823
0.0256373
0.0255151
0.0255151
0.0256373
0.0258823
0.0262514
0.0267464
0.0273696
0.0281239
0.0290122
0.0300374
0.0312017
0.0325061
0.033949
0.0355238
0.0372159
0.0389961
0.0408122
0.0425771
0.0441588
0.0453818
0.0460566
0.0460479
0.0453667
0.0442378
0.0430354
0.0422684
0.0434555
0.044049
0.044982
0.0458235
0.0462413
0.0460368
0.0452002
0.0438571
0.0421866
0.0403572
0.0384964
0.0366877
0.0349799
0.033399
0.0319568
0.0306574
0.0295005
0.028484
0.0276045
0.0268585
0.0262427
0.0257539
0.0253896
0.0251478
0.0250273
0.0250273
0.0251478
0.0253896
0.0257539
0.0262427
0.0268585
0.0276045
0.028484
0.0295005
0.0306574
0.0319568
0.033399
0.0349799
0.0366877
0.0384964
0.0403572
0.0421866
0.0438571
0.0452002
0.0460368
0.0462413
0.0458235
0.044982
0.044049
0.0434555
0.044562
0.0449898
0.0456752
0.04625
0.0464158
0.0459994
0.044996
0.0435256
0.0417596
0.0398603
0.0379509
0.0361113
0.0343871
0.0328004
0.0313601
0.0300675
0.0289202
0.0279145
0.027046
0.0263104
0.0257037
0.0252225
0.0248641
0.0246263
0.0245078
0.0245078
0.0246263
0.0248641
0.0252225
0.0257037
0.0263104
0.027046
0.0279145
0.0289202
0.0300675
0.0313601
0.0328004
0.0343871
0.0361113
0.0379509
0.0398603
0.0417596
0.0435256
0.044996
0.0459994
0.0464158
0.04625
0.0456752
0.0449898
0.044562
0.0455921
0.0458558
0.0463067
0.0466286
0.0465505
0.0459234
0.0447502
0.0431482
0.0412831
0.0393115
0.0373524
0.035482
0.0337421
0.0321513
0.0307149
0.0294315
0.0282964
0.027304
0.0264489
0.0257256
0.0251299
0.0246578
0.0243064
0.0240733
0.0239572
0.0239572
0.0240733
0.0243064
0.0246578
0.0251299
0.0257256
0.0264489
0.027304
0.0282964
0.0294315
0.0307149
0.0321513
0.0337421
0.035482
0.0373524
0.0393115
0.0412831
0.0431482
0.0447502
0.0459234
0.0465505
0.0466286
0.0463067
0.0458558
0.0455921
0.0465477
0.046644
0.0468669
0.0469439
0.0466268
0.0457898
0.044445
0.0427096
0.0407444
0.0387011
0.0366939
0.034795
0.033042
0.0314499
0.0300205
0.0287492
0.0276292
0.026653
0.0258136
0.025105
0.0245221
0.0240605
0.0237172
0.0234896
0.0233762
0.0233762
0.0234896
0.0237172
0.0240605
0.0245221
0.025105
0.0258136
0.026653
0.0276292
0.0287492
0.0300205
0.0314499
0.033042
0.034795
0.0366939
0.0387011
0.0407444
0.0427096
0.044445
0.0457898
0.0466268
0.0469439
0.0468669
0.046644
0.0465477
0.0474292
0.0473505
0.0473465
0.0471817
0.0466276
0.0455806
0.0440636
0.042195
0.0401317
0.0380198
0.0359687
0.0340456
0.0322841
0.0306949
0.0292764
0.028021
0.0269194
0.0259622
0.0251413
0.0244496
0.0238813
0.0234318
0.0230977
0.0228763
0.0227661
0.0227661
0.0228763
0.0230977
0.0234318
0.0238813
0.0244496
0.0251413
0.0259622
0.0269194
0.028021
0.0292764
0.0306949
0.0322841
0.0340456
0.0359687
0.0380198
0.0401317
0.042195
0.0440636
0.0455806
0.0466276
0.0471817
0.0473465
0.0473505
0.0474292
0.0482347
0.0479705
0.0477362
0.0473283
0.0465368
0.0452795
0.0435907
0.041591
0.0394338
0.0372594
0.0351708
0.0332302
0.0314662
0.0298855
0.0284828
0.0272475
0.026168
0.0252331
0.0244333
0.0237608
0.023209
0.0227731
0.0224492
0.0222348
0.022128
0.022128
0.0222348
0.0224492
0.0227731
0.023209
0.0237608
0.0244333
0.0252331
0.026168
0.0272475
0.0284828
0.0298855
0.0314662
0.0332302
0.0351708
0.0372594
0.0394338
0.041591
0.0435907
0.0452795
0.0465368
0.0473283
0.0477362
0.0479705
0.0482347
0.0489613
0.0484977
0.0480264
0.047371
0.0463392
0.0448709
0.043012
0.0408857
0.0386413
0.0364126
0.0342955
0.0323459
0.0305871
0.0290216
0.0276403
0.02643
0.0253765
0.0244673
0.0236915
0.0230403
0.0225069
0.0220859
0.0217734
0.0215666
0.0214636
0.0214636
0.0215666
0.0217734
0.0220859
0.0225069
0.0230403
0.0236915
0.0244673
0.0253765
0.02643
0.0276403
0.0290216
0.0305871
0.0323459
0.0342955
0.0364126
0.0386413
0.0408857
0.043012
0.0448709
0.0463392
0.047371
0.0480264
0.0484977
0.0489613
0.0496043
0.048925
0.0482069
0.0472969
0.0460206
0.0443405
0.0423147
0.0400684
0.0377463
0.0354739
0.0333393
0.0313909
0.0296464
0.0281037
0.0267503
0.02557
0.0245469
0.0236668
0.0229176
0.0222901
0.0217769
0.0213722
0.021072
0.0208734
0.0207746
0.0207746
0.0208734
0.021072
0.0213722
0.0217769
0.0222901
0.0229176
0.0236668
0.0245469
0.02557
0.0267503
0.0281037
0.0296464
0.0313909
0.0333393
0.0354739
0.0377463
0.0400684
0.0423147
0.0443405
0.0460206
0.0472969
0.0482069
0.048925
0.0496043
0.0501579
0.0492442
0.0482668
0.0470929
0.0455671
0.0436752
0.0414874
0.0391305
0.0367426
0.0344398
0.0323004
0.030365
0.0286449
0.0271334
0.0258146
0.02467
0.0236816
0.0228339
0.0221143
0.0215126
0.0210211
0.020634
0.020347
0.0201573
0.0200629
0.0200629
0.0201573
0.020347
0.020634
0.0210211
0.0215126
0.0221143
0.0228339
0.0236816
0.02467
0.0258146
0.0271334
0.0286449
0.030365
0.0323004
0.0344398
0.0367426
0.0391305
0.0414874
0.0436752
0.0455671
0.0470929
0.0482668
0.0492442
0.0501579
0.0506153
0.0494459
0.0481945
0.0467456
0.0449652
0.0428628
0.0405206
0.0380651
0.0356262
0.0333084
0.0311789
0.0292694
0.0275847
0.0261133
0.0248362
0.0237327
0.0227833
0.0219715
0.0212839
0.0207101
0.0202419
0.0198735
0.0196006
0.0194202
0.0193304
0.0193304
0.0194202
0.0196006
0.0198735
0.0202419
0.0207101
0.0212839
0.0219715
0.0227833
0.0237327
0.0248362
0.0261133
0.0275847
0.0292694
0.0311789
0.0333084
0.0356262
0.0380651
0.0405206
0.0428628
0.0449652
0.0467456
0.0481945
0.0494459
0.0506153
0.0509686
0.0495202
0.0479775
0.0462411
0.0442013
0.0418922
0.0394061
0.0368673
0.0343948
0.0320796
0.0299763
0.0281066
0.0264685
0.0250463
0.0238181
0.0227612
0.021855
0.0210823
0.0204292
0.019885
0.0194415
0.0190928
0.0188347
0.018664
0.0185792
0.0185792
0.018664
0.0188347
0.0190928
0.0194415
0.019885
0.0204292
0.0210823
0.021855
0.0227612
0.0238181
0.0250463
0.0264685
0.0281066
0.0299763
0.0320796
0.0343948
0.0368673
0.0394061
0.0418922
0.0442013
0.0462411
0.0479775
0.0495202
0.0509686
0.0512097
0.0494561
0.0476022
0.0455647
0.043262
0.0407529
0.0381374
0.0355342
0.0330485
0.0307552
0.0286951
0.0268796
0.0252999
0.023936
0.0227636
0.0217585
0.0208994
0.0201687
0.0195523
0.0190394
0.0186218
0.0182937
0.0180509
0.0178904
0.0178106
0.0178106
0.0178904
0.0180509
0.0182937
0.0186218
0.0190394
0.0195523
0.0201687
0.0208994
0.0217585
0.0227636
0.023936
0.0252999
0.0268796
0.0286951
0.0307552
0.0330485
0.0355342
0.0381374
0.0407529
0.043262
0.0455647
0.0476022
0.0494561
0.0512097
0.0513293
0.0492412
0.0470533
0.0447007
0.0421339
0.0394357
0.0367101
0.0340654
0.0315894
0.0293389
0.0273399
0.0255932
0.0240833
0.0227865
0.0216764
0.020728
0.0199197
0.0192337
0.0186558
0.0181756
0.0177849
0.0174781
0.017251
0.0171011
0.0170265
0.0170265
0.0171011
0.017251
0.0174781
0.0177849
0.0181756
0.0186558
0.0192337
0.0199197
0.020728
0.0216764
0.0227865
0.0240833
0.0255932
0.0273399
0.0293389
0.0315894
0.0340654
0.0367101
0.0394357
0.0421339
0.0447007
0.0470533
0.0492412
0.0513293
0.0513175
0.0488616
0.0463137
0.0436321
0.0408039
0.0379329
0.0351217
0.0324625
0.0300219
0.0278365
0.0259167
0.024253
0.0228238
0.0216022
0.0205605
0.0196733
0.0189189
0.0182797
0.0177421
0.0172956
0.0169326
0.0166476
0.0164367
0.0162974
0.0162281
0.0162281
0.0162974
0.0164367
0.0166476
0.0169326
0.0172956
0.0177421
0.0182797
0.0189189
0.0196733
0.0205605
0.0216022
0.0228238
0.024253
0.0259167
0.0278365
0.0300219
0.0324625
0.0351217
0.0379329
0.0408039
0.0436321
0.0463137
0.0488616
0.0513175
0.0511643
0.0483012
0.0453636
0.0423409
0.0392594
0.036239
0.0333727
0.0307303
0.0283528
0.0262553
0.0244326
0.0228655
0.0215271
0.0203881
0.0194201
0.0185978
0.0178999
0.0173094
0.0168132
0.0164014
0.0160666
0.0158038
0.0156093
0.0154809
0.015417
0.015417
0.0154809
0.0156093
0.0158038
0.0160666
0.0164014
0.0168132
0.0173094
0.0178999
0.0185978
0.0194201
0.0203881
0.0215271
0.0228655
0.0244326
0.0262553
0.0283528
0.0307303
0.0333727
0.036239
0.0392594
0.0423409
0.0453636
0.0483012
0.0511643
0.0508584
0.0475413
0.0441803
0.0408076
0.0374889
0.0343509
0.0314667
0.0288761
0.0265911
0.0246045
0.022896
0.0214379
0.0201992
0.0191491
0.0182592
0.0175049
0.0168656
0.0163253
0.0158714
0.0154948
0.0151886
0.0149482
0.0147702
0.0146526
0.0145941
0.0145941
0.0146526
0.0147702
0.0149482
0.0151886
0.0154948
0.0158714
0.0163253
0.0168656
0.0175049
0.0182592
0.0191491
0.0201992
0.0214379
0.022896
0.0246045
0.0265911
0.0288761
0.0314667
0.0343509
0.0374889
0.0408076
0.0441803
0.0475413
0.0508584
0.0503878
0.0465586
0.0427367
0.0390117
0.0354827
0.032269
0.0294109
0.0269105
0.0247482
0.0228945
0.021316
0.0199778
0.0188464
0.0178903
0.017082
0.0163979
0.0158187
0.0153294
0.0149184
0.0145773
0.0142999
0.0140819
0.0139204
0.0138137
0.0137606
0.0137606
0.0138137
0.0139204
0.0140819
0.0142999
0.0145773
0.0149184
0.0153294
0.0158187
0.0163979
0.017082
0.0178903
0.0188464
0.0199778
0.021316
0.0228945
0.0247482
0.0269105
0.0294109
0.032269
0.0354827
0.0390117
0.0427367
0.0465586
0.0503878
0.0497382
0.045324
0.0410013
0.0369324
0.0332344
0.0299984
0.0272169
0.0248473
0.0228374
0.0211373
0.0197024
0.0184932
0.0174748
0.0166167
0.0158924
0.01528
0.0147618
0.014324
0.0139561
0.0136505
0.0134017
0.013206
0.013061
0.012965
0.0129172
0.0129172
0.012965
0.013061
0.013206
0.0134017
0.0136505
0.0139561
0.014324
0.0147618
0.01528
0.0158924
0.0166167
0.0174748
0.0184932
0.0197024
0.0211373
0.0228374
0.0248473
0.0272169
0.0299984
0.0332344
0.0369324
0.0410013
0.045324
0.0497382
0.0488913
0.0437992
0.0389371
0.03455
0.0307425
0.0275498
0.0249008
0.0227035
0.0208741
0.0193455
0.0180653
0.0169919
0.0160908
0.0153329
0.014694
0.0141541
0.0136972
0.0133108
0.0129859
0.0127155
0.0124951
0.0123215
0.0121926
0.0121073
0.0120648
0.0120648
0.0121073
0.0121926
0.0123215
0.0124951
0.0127155
0.0129859
0.0133108
0.0136972
0.0141541
0.014694
0.0153329
0.0160908
0.0169919
0.0180653
0.0193455
0.0208741
0.0227035
0.0249008
0.0275498
0.0307425
0.03455
0.0389371
0.0437992
0.0488913
0.0478207
0.0419333
0.0365016
0.031848
0.0280128
0.024941
0.0224841
0.0204992
0.018875
0.0175323
0.016415
0.0154818
0.0147001
0.0140436
0.0134905
0.0130229
0.0126269
0.0122917
0.0120091
0.0117735
0.011581
0.011429
0.011316
0.0112411
0.0112037
0.0112037
0.0112411
0.011316
0.011429
0.011581
0.0117735
0.0120091
0.0122917
0.0126269
0.0130229
0.0134905
0.0140436
0.0147001
0.0154818
0.016415
0.0175323
0.018875
0.0204992
0.0224841
0.024941
0.0280128
0.031848
0.0365016
0.0419333
0.0478207
0.0464844
0.0396577
0.0336481
0.028817
0.0250608
0.022198
0.0199933
0.0182569
0.0168578
0.0157111
0.0147615
0.0139702
0.0133084
0.0127529
0.0122849
0.0118889
0.011553
0.0112679
0.0110269
0.0108253
0.0106601
0.0105293
0.0104317
0.0103669
0.0103346
0.0103346
0.0103669
0.0104317
0.0105293
0.0106601
0.0108253
0.0110269
0.0112679
0.011553
0.0118889
0.0122849
0.0127529
0.0133084
0.0139702
0.0147615
0.0157111
0.0168578
0.0182569
0.0199933
0.022198
0.0250608
0.028817
0.0336481
0.0396577
0.0464844
0.0448117
0.0368812
0.0303301
0.02546
0.0219155
0.019356
0.0174597
0.0160012
0.0148407
0.0138952
0.013114
0.012464
0.0119207
0.0114647
0.0110802
0.0107544
0.0104772
0.0102411
0.0100406
0.00987204
0.00973323
0.00962286
0.00954029
0.00948528
0.00945778
0.00945778
0.00948528
0.00954029
0.00962286
0.00973323
0.00987204
0.0100406
0.0102411
0.0104772
0.0107544
0.0110802
0.0114647
0.0119207
0.012464
0.013114
0.0138952
0.0148407
0.0160012
0.0174597
0.019356
0.0219155
0.02546
0.0303301
0.0368812
0.0448117
0.0426849
0.0334897
0.0265112
0.0218015
0.0186233
0.0164599
0.0149188
0.0137578
0.0128416
0.0120968
0.0114816
0.0109696
0.0105416
0.0101823
0.00987901
0.00962127
0.00940102
0.00921227
0.0090509
0.00891427
0.00880095
0.00871028
0.0086421
0.00859651
0.00857366
0.00857366
0.00859651
0.0086421
0.00871028
0.00880095
0.00891427
0.0090509
0.00921227
0.00940102
0.00962127
0.00987901
0.0101823
0.0105416
0.0109696
0.0114816
0.0120968
0.0128416
0.0137578
0.0149188
0.0164599
0.0186233
0.0218015
0.0265112
0.0334897
0.0426849
0.0399147
0.0293485
0.0221781
0.0178945
0.0152482
0.0135623
0.0124075
0.0115508
0.010876
0.0103261
0.00987066
0.00949125
0.00917406
0.00890765
0.00868227
0.00848989
0.00832429
0.008181
0.00805711
0.00795103
0.00786207
0.00779022
0.00773578
0.00769916
0.00768075
0.00768075
0.00769916
0.00773578
0.00779022
0.00786207
0.00795103
0.00805711
0.008181
0.00832429
0.00848989
0.00868227
0.00890765
0.00917406
0.00949125
0.00987066
0.0103261
0.010876
0.0115508
0.0124075
0.0135623
0.0152482
0.0178945
0.0221781
0.0293485
0.0399147
0.0361524
0.0242614
0.0173305
0.0138084
0.011857
0.0107083
0.00995173
0.00939371
0.0089504
0.00858545
0.00828151
0.00802791
0.00781606
0.00763811
0.00748705
0.00735698
0.00724344
0.00714339
0.00705515
0.00697805
0.0069122
0.00685818
0.00681674
0.00678862
0.00677441
0.00677441
0.00678862
0.00681674
0.00685818
0.0069122
0.00697805
0.00705515
0.00714339
0.00724344
0.00735698
0.00748705
0.00763811
0.00781606
0.00802791
0.00828151
0.00858545
0.0089504
0.00939371
0.00995173
0.0107083
0.011857
0.0138084
0.0173305
0.0242614
0.0361524
0.030541
0.0178636
0.0119566
0.00960319
0.00849315
0.00791723
0.00755641
0.007286
0.0070634
0.00687513
0.00671648
0.00658417
0.00647419
0.00638194
0.00630284
0.00623302
0.00616967
0.0061112
0.00605708
0.00600764
0.00596379
0.00592669
0.00589758
0.00587753
0.00586733
0.00586733
0.00587753
0.00589758
0.00592669
0.00596379
0.00600764
0.00605708
0.0061112
0.00616967
0.00623302
0.00630284
0.00638194
0.00647419
0.00658417
0.00671648
0.00687513
0.0070634
0.007286
0.00755641
0.00791723
0.00849315
0.00960319
0.0119566
0.0178636
0.030541
0.0214005
0.0100172
0.00635607
0.00552961
0.00532949
0.00531273
0.00532067
0.00531563
0.0052983
0.00527673
0.00525732
0.00524283
0.00523296
0.00522561
0.00521821
0.00520855
0.00519532
0.00517826
0.00515799
0.00513587
0.0051136
0.00509305
0.00507596
0.00506378
0.00505752
0.00505752
0.00506378
0.00507596
0.00509305
0.0051136
0.00513587
0.00515799
0.00517826
0.00519532
0.00520855
0.00521821
0.00522561
0.00523296
0.00524283
0.00525732
0.00527673
0.0052983
0.00531563
0.00532067
0.00531273
0.00532949
0.00552961
0.00635607
0.0100172
0.0214005
0.00892456
0.00329146
0.00240661
0.00285644
0.00326459
0.00356628
0.00376382
0.00389024
0.0039762
0.0040428
0.0041021
0.0041592
0.00421461
0.00426644
0.00431213
0.00434952
0.0043774
0.00439572
0.00440539
0.00440808
0.00440583
0.00440082
0.00439507
0.00439025
0.00438755
0.00438755
0.00439025
0.00439507
0.00440082
0.00440583
0.00440808
0.00440539
0.00439572
0.0043774
0.00434952
0.00431213
0.00426644
0.00421461
0.0041592
0.0041021
0.0040428
0.0039762
0.00389024
0.00376382
0.00356628
0.00326459
0.00285644
0.00240661
0.00329146
0.00892456
0.0074138
0.00435473
0.0038923
0.00381061
0.00364536
0.00345502
0.0032528
0.00305797
0.00288501
0.0027425
0.0026336
0.00255705
0.00250858
0.00248233
0.00247203
0.00247194
0.00247733
0.00248475
0.00249194
0.00249769
0.00250155
0.00250363
0.00250429
0.00250399
0.00250316
0.00250316
0.00250399
0.00250429
0.00250363
0.00250155
0.00249769
0.00249194
0.00248475
0.00247733
0.00247194
0.00247203
0.00248233
0.00250858
0.00255705
0.0026336
0.0027425
0.00288501
0.00305797
0.0032528
0.00345502
0.00364536
0.00381061
0.0038923
0.00435473
0.0074138
)
;

boundaryField
{
    left
    {
        type            zeroGradient;
    }
    right
    {
        type            zeroGradient;
    }
    up
    {
        type            fixedValue;
        value           uniform 0;
    }
    down
    {
        type            zeroGradient;
    }
    frontAndBack
    {
        type            empty;
    }
}


// ************************************************************************* //
