/*--------------------------------*- C++ -*----------------------------------*\
  =========                 |
  \\      /  F ield         | OpenFOAM: The Open Source CFD Toolbox
   \\    /   O peration     | Website:  https://openfoam.org
    \\  /    A nd           | Version:  6
     \\/     M anipulation  |
\*---------------------------------------------------------------------------*/
FoamFile
{
    version     2.0;
    format      ascii;
    class       surfaceScalarField;
    location    "3200";
    object      phi;
}
// * * * * * * * * * * * * * * * * * * * * * * * * * * * * * * * * * * * * * //

dimensions      [0 3 -1 0 0 0 0];

internalField   nonuniform List<scalar> 
4900
(
2.12794e-05
5.87206e-05
2.21305e-05
7.91489e-05
2.10373e-05
8.10932e-05
1.99008e-05
8.11365e-05
1.88558e-05
8.10451e-05
1.78626e-05
8.09932e-05
1.68941e-05
8.09685e-05
1.59384e-05
8.09557e-05
1.499e-05
8.09484e-05
1.40461e-05
8.0944e-05
1.31049e-05
8.09412e-05
1.21655e-05
8.09394e-05
1.12274e-05
8.09381e-05
1.02901e-05
8.09373e-05
9.35342e-06
8.09367e-05
8.41719e-06
8.09362e-05
7.4813e-06
8.09359e-05
6.54567e-06
8.09356e-05
5.61024e-06
8.09354e-05
4.67498e-06
8.09353e-05
3.73984e-06
8.09351e-05
2.8048e-06
8.0935e-05
1.86983e-06
8.0935e-05
9.34903e-07
8.09349e-05
-7.57789e-17
8.09349e-05
-9.34903e-07
8.09349e-05
-1.86983e-06
8.09349e-05
-2.8048e-06
8.0935e-05
-3.73984e-06
8.0935e-05
-4.67498e-06
8.09351e-05
-5.61024e-06
8.09353e-05
-6.54567e-06
8.09354e-05
-7.4813e-06
8.09356e-05
-8.41719e-06
8.09359e-05
-9.35342e-06
8.09362e-05
-1.02901e-05
8.09367e-05
-1.12274e-05
8.09373e-05
-1.21655e-05
8.09381e-05
-1.31049e-05
8.09394e-05
-1.40461e-05
8.09412e-05
-1.499e-05
8.0944e-05
-1.59384e-05
8.09484e-05
-1.68941e-05
8.09557e-05
-1.78626e-05
8.09685e-05
-1.88558e-05
8.09932e-05
-1.99008e-05
8.10451e-05
-2.10373e-05
8.11365e-05
-2.21305e-05
8.10932e-05
-2.12794e-05
7.91489e-05
5.87206e-05
1.65014e-05
4.22192e-05
2.19156e-05
7.37347e-05
2.18202e-05
8.11886e-05
2.06221e-05
8.23346e-05
1.93953e-05
8.22719e-05
1.82664e-05
8.21221e-05
1.72089e-05
8.2026e-05
1.6194e-05
8.19706e-05
1.52043e-05
8.19381e-05
1.42299e-05
8.19183e-05
1.32653e-05
8.19059e-05
1.23068e-05
8.18978e-05
1.13525e-05
8.18924e-05
1.04011e-05
8.18887e-05
9.45169e-06
8.18861e-05
8.50373e-06
8.18842e-05
7.55686e-06
8.18828e-05
6.61081e-06
8.18817e-05
5.6654e-06
8.18808e-05
4.72049e-06
8.18802e-05
3.77596e-06
8.18797e-05
2.83173e-06
8.18793e-05
1.8877e-06
8.1879e-05
9.43819e-07
8.18788e-05
-2.06529e-16
8.18787e-05
-9.43819e-07
8.18787e-05
-1.8877e-06
8.18788e-05
-2.83173e-06
8.1879e-05
-3.77596e-06
8.18793e-05
-4.72049e-06
8.18797e-05
-5.6654e-06
8.18802e-05
-6.61081e-06
8.18808e-05
-7.55686e-06
8.18817e-05
-8.50373e-06
8.18828e-05
-9.45169e-06
8.18842e-05
-1.04011e-05
8.18861e-05
-1.13525e-05
8.18887e-05
-1.23068e-05
8.18924e-05
-1.32653e-05
8.18978e-05
-1.42299e-05
8.19059e-05
-1.52043e-05
8.19183e-05
-1.6194e-05
8.19381e-05
-1.72089e-05
8.19706e-05
-1.82664e-05
8.2026e-05
-1.93953e-05
8.21221e-05
-2.06221e-05
8.22719e-05
-2.18202e-05
8.23346e-05
-2.19156e-05
8.11886e-05
-1.65014e-05
7.37347e-05
4.22192e-05
1.21123e-05
3.0107e-05
1.99588e-05
6.58881e-05
2.17215e-05
7.94259e-05
2.10699e-05
8.29862e-05
1.98676e-05
8.34742e-05
1.86525e-05
8.33372e-05
1.75125e-05
8.3166e-05
1.6436e-05
8.30471e-05
1.54021e-05
8.2972e-05
1.43954e-05
8.29249e-05
1.34063e-05
8.2895e-05
1.24287e-05
8.28754e-05
1.14588e-05
8.28623e-05
1.04941e-05
8.28534e-05
9.53314e-06
8.28471e-05
8.57482e-06
8.28425e-05
7.61846e-06
8.28391e-05
6.66358e-06
8.28366e-05
5.70985e-06
8.28346e-05
4.75701e-06
8.2833e-05
3.80485e-06
8.28318e-05
2.85321e-06
8.28309e-05
1.90194e-06
8.28303e-05
9.50908e-07
8.28298e-05
-3.17073e-16
8.28296e-05
-9.50908e-07
8.28296e-05
-1.90194e-06
8.28298e-05
-2.85321e-06
8.28303e-05
-3.80485e-06
8.28309e-05
-4.75701e-06
8.28318e-05
-5.70985e-06
8.2833e-05
-6.66358e-06
8.28346e-05
-7.61846e-06
8.28366e-05
-8.57482e-06
8.28391e-05
-9.53314e-06
8.28425e-05
-1.04941e-05
8.28471e-05
-1.14588e-05
8.28534e-05
-1.24287e-05
8.28623e-05
-1.34063e-05
8.28754e-05
-1.43954e-05
8.2895e-05
-1.54021e-05
8.29249e-05
-1.6436e-05
8.2972e-05
-1.75125e-05
8.30471e-05
-1.86525e-05
8.3166e-05
-1.98676e-05
8.33372e-05
-2.10699e-05
8.34742e-05
-2.17215e-05
8.29862e-05
-1.99588e-05
7.94259e-05
-1.21123e-05
6.58881e-05
3.0107e-05
8.50829e-06
2.15987e-05
1.70522e-05
5.73442e-05
2.06404e-05
7.58376e-05
2.10081e-05
8.26185e-05
2.01337e-05
8.43486e-05
1.89578e-05
8.45131e-05
1.77779e-05
8.4346e-05
1.66526e-05
8.41723e-05
1.55778e-05
8.40467e-05
1.45398e-05
8.3963e-05
1.35267e-05
8.3908e-05
1.25305e-05
8.38716e-05
1.15457e-05
8.38471e-05
1.05689e-05
8.38302e-05
9.59756e-06
8.38184e-05
8.63029e-06
8.38098e-05
7.66597e-06
8.38034e-05
6.70389e-06
8.37986e-05
5.74352e-06
8.37949e-05
4.78448e-06
8.37921e-05
3.82646e-06
8.37898e-05
2.8692e-06
8.37882e-05
1.9125e-06
8.3787e-05
9.56163e-07
8.37862e-05
-4.102e-16
8.37858e-05
-9.56163e-07
8.37858e-05
-1.9125e-06
8.37862e-05
-2.8692e-06
8.3787e-05
-3.82646e-06
8.37882e-05
-4.78448e-06
8.37898e-05
-5.74352e-06
8.37921e-05
-6.70389e-06
8.37949e-05
-7.66597e-06
8.37986e-05
-8.63029e-06
8.38034e-05
-9.59756e-06
8.38098e-05
-1.05689e-05
8.38184e-05
-1.15457e-05
8.38302e-05
-1.25305e-05
8.38471e-05
-1.35267e-05
8.38716e-05
-1.45398e-05
8.3908e-05
-1.55778e-05
8.3963e-05
-1.66526e-05
8.40467e-05
-1.77779e-05
8.41723e-05
-1.89578e-05
8.4346e-05
-2.01337e-05
8.45131e-05
-2.10081e-05
8.43486e-05
-2.06404e-05
8.26185e-05
-1.70522e-05
7.58376e-05
-8.50829e-06
5.73442e-05
2.15987e-05
5.8175e-06
1.57812e-05
1.39492e-05
4.92126e-05
1.88281e-05
7.09587e-05
2.03656e-05
8.1081e-05
2.00826e-05
8.46316e-05
1.91113e-05
8.54844e-05
1.79683e-05
8.54891e-05
1.68256e-05
8.53149e-05
1.57226e-05
8.51498e-05
1.46582e-05
8.50274e-05
1.36236e-05
8.49426e-05
1.26104e-05
8.48848e-05
1.16122e-05
8.48453e-05
1.06245e-05
8.48179e-05
9.6444e-06
8.47985e-05
8.66971e-06
8.47845e-05
7.69906e-06
8.47741e-05
6.73145e-06
8.47662e-05
5.76619e-06
8.47602e-05
4.80272e-06
8.47555e-05
3.84064e-06
8.47519e-05
2.87961e-06
8.47492e-05
1.91934e-06
8.47472e-05
9.59548e-07
8.4746e-05
-4.8806e-16
8.47453e-05
-9.59548e-07
8.47453e-05
-1.91934e-06
8.4746e-05
-2.87961e-06
8.47472e-05
-3.84064e-06
8.47492e-05
-4.80272e-06
8.47519e-05
-5.76619e-06
8.47555e-05
-6.73145e-06
8.47602e-05
-7.69906e-06
8.47662e-05
-8.66971e-06
8.47741e-05
-9.6444e-06
8.47845e-05
-1.06245e-05
8.47985e-05
-1.16122e-05
8.48179e-05
-1.26104e-05
8.48453e-05
-1.36236e-05
8.48848e-05
-1.46582e-05
8.49426e-05
-1.57226e-05
8.50274e-05
-1.68256e-05
8.51498e-05
-1.79683e-05
8.53149e-05
-1.91113e-05
8.54891e-05
-2.00826e-05
8.54844e-05
-2.03656e-05
8.46316e-05
-1.88281e-05
8.1081e-05
-1.39492e-05
7.09587e-05
-5.8175e-06
4.92126e-05
1.57812e-05
3.91586e-06
1.18653e-05
1.10883e-05
4.20401e-05
1.66274e-05
6.54197e-05
1.92172e-05
7.84912e-05
1.96693e-05
8.41795e-05
1.90568e-05
8.60968e-05
1.80459e-05
8.65e-05
1.69339e-05
8.64269e-05
1.58248e-05
8.6259e-05
1.47445e-05
8.61077e-05
1.36936e-05
8.59935e-05
1.26664e-05
8.5912e-05
1.16569e-05
8.58549e-05
1.06602e-05
8.58146e-05
9.67292e-06
8.57858e-05
8.69251e-06
8.57649e-05
7.71725e-06
8.57494e-05
6.74589e-06
8.57376e-05
5.77752e-06
8.57286e-05
4.81147e-06
8.57216e-05
3.8472e-06
8.57162e-05
2.88428e-06
8.57121e-05
1.92233e-06
8.57092e-05
9.61012e-07
8.57073e-05
-5.53067e-16
8.57064e-05
-9.61012e-07
8.57064e-05
-1.92233e-06
8.57073e-05
-2.88428e-06
8.57092e-05
-3.8472e-06
8.57121e-05
-4.81147e-06
8.57162e-05
-5.77752e-06
8.57216e-05
-6.74589e-06
8.57286e-05
-7.71725e-06
8.57376e-05
-8.69251e-06
8.57494e-05
-9.67292e-06
8.57649e-05
-1.06602e-05
8.57858e-05
-1.16569e-05
8.58146e-05
-1.26664e-05
8.58549e-05
-1.36936e-05
8.5912e-05
-1.47445e-05
8.59935e-05
-1.58248e-05
8.61077e-05
-1.69339e-05
8.6259e-05
-1.80459e-05
8.64269e-05
-1.90568e-05
8.65e-05
-1.96693e-05
8.60968e-05
-1.92172e-05
8.41795e-05
-1.66274e-05
7.84912e-05
-1.10883e-05
6.54197e-05
-3.91586e-06
4.20401e-05
1.18653e-05
2.61483e-06
9.25049e-06
8.65334e-06
3.60016e-05
1.43265e-05
5.97466e-05
1.77079e-05
7.51097e-05
1.89101e-05
8.29774e-05
1.87641e-05
8.62428e-05
1.79791e-05
8.72849e-05
1.69556e-05
8.74504e-05
1.58714e-05
8.73432e-05
1.47911e-05
8.7188e-05
1.37322e-05
8.70523e-05
1.26957e-05
8.69485e-05
1.16779e-05
8.68727e-05
1.06746e-05
8.68179e-05
9.68212e-06
8.67782e-05
8.6979e-06
8.67491e-05
7.71989e-06
8.67274e-05
6.74664e-06
8.67109e-05
5.77707e-06
8.66981e-05
4.81035e-06
8.66883e-05
3.84584e-06
8.66807e-05
2.88299e-06
8.6675e-05
1.92135e-06
8.66708e-05
9.60481e-07
8.66682e-05
-6.07477e-16
8.66668e-05
-9.60481e-07
8.66668e-05
-1.92135e-06
8.66682e-05
-2.88299e-06
8.66708e-05
-3.84584e-06
8.6675e-05
-4.81035e-06
8.66807e-05
-5.77707e-06
8.66883e-05
-6.74664e-06
8.66981e-05
-7.71989e-06
8.67109e-05
-8.6979e-06
8.67274e-05
-9.68212e-06
8.67491e-05
-1.06746e-05
8.67782e-05
-1.16779e-05
8.68179e-05
-1.26957e-05
8.68727e-05
-1.37322e-05
8.69485e-05
-1.47911e-05
8.70523e-05
-1.58714e-05
8.7188e-05
-1.69556e-05
8.73432e-05
-1.79791e-05
8.74504e-05
-1.87641e-05
8.72849e-05
-1.89101e-05
8.62428e-05
-1.77079e-05
8.29774e-05
-1.43265e-05
7.51097e-05
-8.65334e-06
5.97466e-05
-2.61483e-06
3.60016e-05
9.25049e-06
1.74458e-06
7.50592e-06
6.68054e-06
3.10656e-05
1.21209e-05
5.43062e-05
1.59941e-05
7.12365e-05
1.78634e-05
8.11081e-05
1.82312e-05
8.5875e-05
1.77476e-05
8.77685e-05
1.68715e-05
8.83265e-05
1.58488e-05
8.83659e-05
1.47892e-05
8.82477e-05
1.37338e-05
8.81077e-05
1.26947e-05
8.79876e-05
1.16728e-05
8.78945e-05
1.06658e-05
8.78249e-05
9.67067e-06
8.77734e-05
8.6848e-06
8.7735e-05
7.7061e-06
8.77061e-05
6.73298e-06
8.7684e-05
5.76422e-06
8.76669e-05
4.79886e-06
8.76537e-05
3.83615e-06
8.76434e-05
2.87544e-06
8.76357e-05
1.91618e-06
8.76301e-05
9.57858e-07
8.76265e-05
-6.53825e-16
8.76247e-05
-9.57858e-07
8.76247e-05
-1.91618e-06
8.76265e-05
-2.87544e-06
8.76301e-05
-3.83615e-06
8.76357e-05
-4.79886e-06
8.76434e-05
-5.76422e-06
8.76537e-05
-6.73298e-06
8.76669e-05
-7.7061e-06
8.7684e-05
-8.6848e-06
8.77061e-05
-9.67067e-06
8.7735e-05
-1.06658e-05
8.77734e-05
-1.16728e-05
8.78249e-05
-1.26947e-05
8.78945e-05
-1.37338e-05
8.79876e-05
-1.47892e-05
8.81077e-05
-1.58488e-05
8.82477e-05
-1.68715e-05
8.83659e-05
-1.77476e-05
8.83265e-05
-1.82312e-05
8.77685e-05
-1.78634e-05
8.5875e-05
-1.59941e-05
8.11081e-05
-1.21209e-05
7.12365e-05
-6.68054e-06
5.43062e-05
-1.74458e-06
3.10656e-05
7.50592e-06
1.17204e-06
6.33388e-06
5.13337e-06
2.71043e-05
1.01227e-05
4.93169e-05
1.42118e-05
6.71474e-05
1.66077e-05
7.87122e-05
1.74794e-05
8.50033e-05
1.73445e-05
8.79034e-05
1.66676e-05
8.90033e-05
1.57447e-05
8.92889e-05
1.47298e-05
8.92626e-05
1.36923e-05
8.91452e-05
1.26591e-05
8.90208e-05
1.16387e-05
8.8915e-05
1.06318e-05
8.88318e-05
9.63688e-06
8.87683e-05
8.65185e-06
8.872e-05
7.67476e-06
8.86832e-05
6.70398e-06
8.86548e-05
5.7382e-06
8.86327e-05
4.77638e-06
8.86155e-05
3.81764e-06
8.86022e-05
2.86126e-06
8.85921e-05
1.90659e-06
8.85848e-05
9.53019e-07
8.858e-05
-6.94378e-16
8.85777e-05
-9.53019e-07
8.85777e-05
-1.90659e-06
8.858e-05
-2.86126e-06
8.85848e-05
-3.81764e-06
8.85921e-05
-4.77638e-06
8.86022e-05
-5.7382e-06
8.86155e-05
-6.70398e-06
8.86327e-05
-7.67476e-06
8.86548e-05
-8.65185e-06
8.86832e-05
-9.63688e-06
8.872e-05
-1.06318e-05
8.87683e-05
-1.16387e-05
8.88318e-05
-1.26591e-05
8.8915e-05
-1.36923e-05
8.90208e-05
-1.47298e-05
8.91452e-05
-1.57447e-05
8.92626e-05
-1.66676e-05
8.92889e-05
-1.73445e-05
8.90033e-05
-1.74794e-05
8.79034e-05
-1.66077e-05
8.50033e-05
-1.42118e-05
7.87122e-05
-1.01227e-05
6.71474e-05
-5.13337e-06
4.93169e-05
-1.17204e-06
2.71043e-05
6.33388e-06
7.99285e-07
5.53459e-06
3.94555e-06
2.3958e-05
8.38065e-06
4.48818e-05
1.2464e-05
6.3064e-05
1.52247e-05
7.59514e-05
1.65464e-05
8.36816e-05
1.67758e-05
8.76741e-05
1.63366e-05
8.94425e-05
1.5549e-05
9.00765e-05
1.46044e-05
9.02072e-05
1.36012e-05
9.01484e-05
1.25845e-05
9.00375e-05
1.15721e-05
8.99274e-05
1.05699e-05
8.9834e-05
9.57873e-06
8.97595e-05
8.59744e-06
8.97013e-05
7.62453e-06
8.96561e-05
6.65851e-06
8.96208e-05
5.69809e-06
8.95931e-05
4.74213e-06
8.95714e-05
3.78972e-06
8.95546e-05
2.84001e-06
8.95418e-05
1.89227e-06
8.95325e-05
9.45817e-07
8.95265e-05
-7.31176e-16
8.95235e-05
-9.45817e-07
8.95235e-05
-1.89227e-06
8.95265e-05
-2.84001e-06
8.95325e-05
-3.78972e-06
8.95418e-05
-4.74213e-06
8.95546e-05
-5.69809e-06
8.95714e-05
-6.65851e-06
8.95931e-05
-7.62453e-06
8.96208e-05
-8.59744e-06
8.96561e-05
-9.57873e-06
8.97013e-05
-1.05699e-05
8.97595e-05
-1.15721e-05
8.9834e-05
-1.25845e-05
8.99274e-05
-1.36012e-05
9.00375e-05
-1.46044e-05
9.01484e-05
-1.5549e-05
9.02072e-05
-1.63366e-05
9.00765e-05
-1.67758e-05
8.94425e-05
-1.65464e-05
8.76741e-05
-1.52247e-05
8.36816e-05
-1.2464e-05
7.59514e-05
-8.38065e-06
6.3064e-05
-3.94555e-06
4.48818e-05
-7.99285e-07
2.3958e-05
5.53459e-06
5.57363e-07
4.97723e-06
3.04498e-06
2.14704e-05
6.90178e-06
4.1025e-05
1.08195e-05
5.91463e-05
1.37878e-05
7.29831e-05
1.54774e-05
8.19919e-05
1.60582e-05
8.70933e-05
1.58784e-05
8.96223e-05
1.52553e-05
9.06996e-05
1.44056e-05
9.10569e-05
1.34544e-05
9.10996e-05
1.24658e-05
9.10262e-05
1.14693e-05
9.09238e-05
1.04773e-05
9.0826e-05
9.4939e-06
9.07429e-05
8.51965e-06
9.06755e-05
7.55383e-06
9.06219e-05
6.59527e-06
9.05793e-05
5.64277e-06
9.05456e-05
4.69523e-06
9.0519e-05
3.75166e-06
9.04981e-05
2.81115e-06
9.04823e-05
1.87288e-06
9.04708e-05
9.36075e-07
9.04633e-05
-7.65614e-16
9.04596e-05
-9.36075e-07
9.04596e-05
-1.87288e-06
9.04633e-05
-2.81115e-06
9.04708e-05
-3.75166e-06
9.04823e-05
-4.69523e-06
9.04981e-05
-5.64277e-06
9.0519e-05
-6.59527e-06
9.05456e-05
-7.55383e-06
9.05793e-05
-8.51965e-06
9.06219e-05
-9.4939e-06
9.06755e-05
-1.04773e-05
9.07429e-05
-1.14693e-05
9.0826e-05
-1.24658e-05
9.09238e-05
-1.34544e-05
9.10262e-05
-1.44056e-05
9.10996e-05
-1.52553e-05
9.10569e-05
-1.58784e-05
9.06996e-05
-1.60582e-05
8.96223e-05
-1.54774e-05
8.70933e-05
-1.37878e-05
8.19919e-05
-1.08195e-05
7.29831e-05
-6.90178e-06
5.91463e-05
-3.04498e-06
4.1025e-05
-5.57363e-07
2.14704e-05
4.97723e-06
3.99436e-07
4.5778e-06
2.36571e-06
1.95041e-05
5.66828e-06
3.77225e-05
9.31731e-06
5.54973e-05
1.2356e-05
6.99445e-05
1.43189e-05
8.0029e-05
1.52155e-05
8.61967e-05
1.52994e-05
8.95384e-05
1.48611e-05
9.11379e-05
1.41279e-05
9.179e-05
1.32461e-05
9.19814e-05
1.22981e-05
9.19742e-05
1.13263e-05
9.18956e-05
1.03507e-05
9.18016e-05
9.37977e-06
9.17139e-05
8.41633e-06
9.1639e-05
7.46085e-06
9.15774e-05
6.51273e-06
9.15275e-05
5.571e-06
9.14873e-05
4.63465e-06
9.14553e-05
3.70266e-06
9.14301e-05
2.77408e-06
9.14109e-05
1.84801e-06
9.13969e-05
9.23595e-07
9.13877e-05
-7.98282e-16
9.13832e-05
-9.23595e-07
9.13832e-05
-1.84801e-06
9.13877e-05
-2.77408e-06
9.13969e-05
-3.70266e-06
9.14109e-05
-4.63465e-06
9.14301e-05
-5.571e-06
9.14553e-05
-6.51273e-06
9.14873e-05
-7.46085e-06
9.15275e-05
-8.41633e-06
9.15774e-05
-9.37977e-06
9.1639e-05
-1.03507e-05
9.17139e-05
-1.13263e-05
9.18016e-05
-1.22981e-05
9.18956e-05
-1.32461e-05
9.19742e-05
-1.41279e-05
9.19814e-05
-1.48611e-05
9.179e-05
-1.52994e-05
9.11379e-05
-1.52155e-05
8.95384e-05
-1.43189e-05
8.61967e-05
-1.2356e-05
8.0029e-05
-9.31731e-06
6.99445e-05
-5.66828e-06
5.54973e-05
-2.36571e-06
3.77225e-05
-3.99436e-07
1.95041e-05
4.5778e-06
2.94647e-07
4.28315e-06
1.85265e-06
1.79461e-05
4.65042e-06
3.49247e-05
7.9737e-06
5.2174e-05
1.09726e-05
6.69456e-05
1.31133e-05
7.78884e-05
1.4275e-05
8.50349e-05
1.46112e-05
8.92023e-05
1.43678e-05
9.13813e-05
1.3768e-05
9.23897e-05
1.29715e-05
9.27779e-05
1.20768e-05
9.28689e-05
1.11391e-05
9.28333e-05
1.01868e-05
9.27539e-05
9.23351e-06
9.26671e-05
8.28511e-06
9.25874e-05
7.3436e-06
9.25189e-05
6.40921e-06
9.24618e-05
5.48138e-06
9.24152e-05
4.55924e-06
9.23775e-05
3.64181e-06
9.23476e-05
2.72813e-06
9.23245e-05
1.81722e-06
9.23078e-05
9.08154e-07
9.22968e-05
-8.29037e-16
9.22914e-05
-9.08154e-07
9.22914e-05
-1.81722e-06
9.22968e-05
-2.72813e-06
9.23078e-05
-3.64181e-06
9.23245e-05
-4.55924e-06
9.23476e-05
-5.48138e-06
9.23775e-05
-6.40921e-06
9.24152e-05
-7.3436e-06
9.24618e-05
-8.28511e-06
9.25189e-05
-9.23351e-06
9.25874e-05
-1.01868e-05
9.26671e-05
-1.11391e-05
9.27539e-05
-1.20768e-05
9.28333e-05
-1.29715e-05
9.28689e-05
-1.3768e-05
9.27779e-05
-1.43678e-05
9.23897e-05
-1.46112e-05
9.13813e-05
-1.4275e-05
8.92023e-05
-1.31133e-05
8.50349e-05
-1.09726e-05
7.78884e-05
-7.9737e-06
6.69456e-05
-4.65042e-06
5.2174e-05
-1.85265e-06
3.49247e-05
-2.94647e-07
1.79461e-05
4.28315e-06
2.23153e-07
4.06e-06
1.46232e-06
1.6707e-05
3.81473e-06
3.25723e-05
6.78928e-06
4.91994e-05
9.66633e-06
6.40685e-05
1.18967e-05
7.5658e-05
1.32646e-05
8.36669e-05
1.38289e-05
8.8638e-05
1.37803e-05
9.14299e-05
1.3325e-05
9.2845e-05
1.26272e-05
9.34757e-05
1.17978e-05
9.36983e-05
1.09036e-05
9.37275e-05
9.98198e-06
9.36755e-05
9.05214e-06
9.3597e-05
8.12345e-06
9.35161e-05
7.19994e-06
9.34424e-05
6.28291e-06
9.33789e-05
5.37239e-06
9.33257e-05
4.46775e-06
9.32821e-05
3.56814e-06
9.32472e-05
2.67257e-06
9.32201e-05
1.78003e-06
9.32003e-05
8.8951e-07
9.31873e-05
-8.56749e-16
9.31809e-05
-8.8951e-07
9.31809e-05
-1.78003e-06
9.31873e-05
-2.67257e-06
9.32003e-05
-3.56814e-06
9.32201e-05
-4.46775e-06
9.32472e-05
-5.37239e-06
9.32821e-05
-6.28291e-06
9.33257e-05
-7.19994e-06
9.33789e-05
-8.12345e-06
9.34424e-05
-9.05214e-06
9.35161e-05
-9.98198e-06
9.3597e-05
-1.09036e-05
9.36755e-05
-1.17978e-05
9.37275e-05
-1.26272e-05
9.36983e-05
-1.3325e-05
9.34757e-05
-1.37803e-05
9.2845e-05
-1.38289e-05
9.14299e-05
-1.32646e-05
8.8638e-05
-1.18967e-05
8.36669e-05
-9.66633e-06
7.5658e-05
-6.78928e-06
6.40685e-05
-3.81473e-06
4.91994e-05
-1.46232e-06
3.25723e-05
-2.23153e-07
1.6707e-05
4.06e-06
1.72444e-07
3.88755e-06
1.1617e-06
1.57177e-05
3.12882e-06
3.06052e-05
5.75487e-06
4.65734e-05
8.45339e-06
6.137e-05
1.06975e-05
7.34139e-05
1.22105e-05
8.21539e-05
1.29697e-05
8.78789e-05
1.31065e-05
9.12931e-05
1.28001e-05
9.31514e-05
1.22112e-05
9.40646e-05
1.14577e-05
9.44518e-05
1.06164e-05
9.45688e-05
9.73294e-06
9.4559e-05
8.83264e-06
9.44973e-05
7.92875e-06
9.442e-05
7.02762e-06
9.43435e-05
6.13193e-06
9.42745e-05
5.24244e-06
9.42152e-05
4.3589e-06
9.41656e-05
3.48061e-06
9.41255e-05
2.60663e-06
9.40941e-05
1.73592e-06
9.4071e-05
8.67412e-07
9.40558e-05
-8.79996e-16
9.40483e-05
-8.67412e-07
9.40483e-05
-1.73592e-06
9.40558e-05
-2.60663e-06
9.4071e-05
-3.48061e-06
9.40941e-05
-4.3589e-06
9.41255e-05
-5.24244e-06
9.41656e-05
-6.13193e-06
9.42152e-05
-7.02762e-06
9.42745e-05
-7.92875e-06
9.43435e-05
-8.83264e-06
9.442e-05
-9.73294e-06
9.44973e-05
-1.06164e-05
9.4559e-05
-1.14577e-05
9.45688e-05
-1.22112e-05
9.44518e-05
-1.28001e-05
9.40646e-05
-1.31065e-05
9.31514e-05
-1.29697e-05
9.12931e-05
-1.22105e-05
8.78789e-05
-1.06975e-05
8.21539e-05
-8.45339e-06
7.34139e-05
-5.75487e-06
6.137e-05
-3.12882e-06
4.65734e-05
-1.1617e-06
3.06052e-05
-1.72444e-07
1.57177e-05
3.88755e-06
1.34752e-07
3.7528e-06
9.26353e-07
1.49261e-05
2.5638e-06
2.89677e-05
4.85605e-06
4.42811e-05
7.34061e-06
5.88855e-05
9.53654e-06
7.12179e-05
1.11359e-05
8.05546e-05
1.20512e-05
8.69635e-05
1.23565e-05
9.09879e-05
1.21973e-05
9.33106e-05
1.17231e-05
9.45388e-05
1.10542e-05
9.51207e-05
1.02744e-05
9.53486e-05
9.43658e-06
9.53968e-05
8.57216e-06
9.53617e-05
7.69844e-06
9.52937e-05
6.82443e-06
9.52175e-05
5.95438e-06
9.51446e-05
5.08995e-06
9.50796e-05
4.23138e-06
9.50242e-05
3.37821e-06
9.49786e-05
2.52956e-06
9.49427e-05
1.6844e-06
9.49162e-05
8.41607e-07
9.48986e-05
-8.96532e-16
9.48899e-05
-8.41607e-07
9.48899e-05
-1.6844e-06
9.48986e-05
-2.52956e-06
9.49162e-05
-3.37821e-06
9.49427e-05
-4.23138e-06
9.49786e-05
-5.08995e-06
9.50242e-05
-5.95438e-06
9.50796e-05
-6.82443e-06
9.51446e-05
-7.69844e-06
9.52175e-05
-8.57216e-06
9.52937e-05
-9.43658e-06
9.53617e-05
-1.02744e-05
9.53968e-05
-1.10542e-05
9.53486e-05
-1.17231e-05
9.51207e-05
-1.21973e-05
9.45388e-05
-1.23565e-05
9.33106e-05
-1.20512e-05
9.09879e-05
-1.11359e-05
8.69635e-05
-9.53654e-06
8.05546e-05
-7.34061e-06
7.12179e-05
-4.85605e-06
5.88855e-05
-2.5638e-06
4.42811e-05
-9.26353e-07
2.89677e-05
-1.34752e-07
1.49261e-05
3.7528e-06
1.05305e-07
3.64749e-06
7.38506e-07
1.42929e-05
2.09518e-06
2.7611e-05
4.0763e-06
4.23e-05
6.32803e-06
5.66337e-05
8.42782e-06
6.91181e-05
1.00602e-05
7.89222e-05
1.10908e-05
8.59329e-05
1.15416e-05
9.05371e-05
1.1522e-05
9.33302e-05
1.11645e-05
9.48963e-05
1.05864e-05
9.56988e-05
9.87528e-06
9.60597e-05
9.0903e-06
9.61818e-05
8.26812e-06
9.61839e-05
7.43018e-06
9.61316e-05
6.58829e-06
9.60594e-05
5.74846e-06
9.59844e-05
4.9134e-06
9.59147e-05
4.08396e-06
9.58536e-05
3.25994e-06
9.58027e-05
2.44062e-06
9.57621e-05
1.62499e-06
9.57318e-05
8.11857e-07
9.57117e-05
-9.04489e-16
9.57017e-05
-8.11857e-07
9.57017e-05
-1.62499e-06
9.57117e-05
-2.44062e-06
9.57318e-05
-3.25994e-06
9.57621e-05
-4.08396e-06
9.58027e-05
-4.9134e-06
9.58536e-05
-5.74846e-06
9.59147e-05
-6.58829e-06
9.59844e-05
-7.43018e-06
9.60594e-05
-8.26812e-06
9.61316e-05
-9.0903e-06
9.61839e-05
-9.87528e-06
9.61818e-05
-1.05864e-05
9.60597e-05
-1.11645e-05
9.56988e-05
-1.1522e-05
9.48963e-05
-1.15416e-05
9.33302e-05
-1.10908e-05
9.05371e-05
-1.00602e-05
8.59329e-05
-8.42782e-06
7.89222e-05
-6.32803e-06
6.91181e-05
-4.0763e-06
5.66337e-05
-2.09518e-06
4.23e-05
-7.38506e-07
2.7611e-05
-1.05305e-07
1.42929e-05
3.64749e-06
8.11916e-08
3.5663e-06
5.85407e-07
1.37887e-05
1.70293e-06
2.64935e-05
3.39903e-06
4.06039e-05
5.41129e-06
5.46215e-05
7.37981e-06
6.71496e-05
8.9991e-06
7.73029e-05
1.01044e-05
8.48276e-05
1.06741e-05
8.99674e-05
1.07816e-05
9.32228e-05
1.05384e-05
9.51394e-05
1.00544e-05
9.61828e-05
9.41802e-06
9.66961e-05
8.69228e-06
9.69075e-05
7.91851e-06
9.69577e-05
7.12202e-06
9.69281e-05
6.31742e-06
9.6864e-05
5.51263e-06
9.67892e-05
4.7115e-06
9.67158e-05
3.91555e-06
9.66496e-05
3.12497e-06
9.65932e-05
2.3392e-06
9.65478e-05
1.55725e-06
9.65137e-05
7.77955e-07
9.6491e-05
-9.01355e-16
9.64797e-05
-7.77955e-07
9.64797e-05
-1.55725e-06
9.6491e-05
-2.3392e-06
9.65137e-05
-3.12497e-06
9.65478e-05
-3.91555e-06
9.65932e-05
-4.7115e-06
9.66496e-05
-5.51263e-06
9.67158e-05
-6.31742e-06
9.67892e-05
-7.12202e-06
9.6864e-05
-7.91851e-06
9.69281e-05
-8.69228e-06
9.69577e-05
-9.41802e-06
9.69075e-05
-1.00544e-05
9.66961e-05
-1.05384e-05
9.61828e-05
-1.07816e-05
9.51394e-05
-1.06741e-05
9.32228e-05
-1.01044e-05
8.99674e-05
-8.9991e-06
8.48276e-05
-7.37981e-06
7.73029e-05
-5.41129e-06
6.71496e-05
-3.39903e-06
5.46215e-05
-1.70293e-06
4.06039e-05
-5.85407e-07
2.64935e-05
-8.11916e-08
1.37887e-05
3.5663e-06
6.06299e-08
3.50567e-06
4.57959e-07
1.33914e-05
1.37101e-06
2.55805e-05
2.80881e-06
3.91661e-05
4.58348e-06
5.28468e-05
6.39658e-06
6.53365e-05
7.96437e-06
7.57351e-05
9.10628e-06
8.36857e-05
9.76642e-06
8.93072e-05
9.9846e-06
9.30046e-05
9.84967e-06
9.52743e-05
9.46038e-06
9.65721e-05
8.90268e-06
9.72538e-05
8.24165e-06
9.75686e-05
7.52205e-06
9.76773e-05
6.77258e-06
9.76776e-05
6.01054e-06
9.76261e-05
5.24573e-06
9.7554e-05
4.48325e-06
9.74783e-05
3.72536e-06
9.74075e-05
2.97266e-06
9.73459e-05
2.22481e-06
9.72957e-05
1.4809e-06
9.72576e-05
7.39745e-07
9.72322e-05
-8.8558e-16
9.72194e-05
-7.39745e-07
9.72194e-05
-1.4809e-06
9.72322e-05
-2.22481e-06
9.72576e-05
-2.97266e-06
9.72957e-05
-3.72536e-06
9.73459e-05
-4.48325e-06
9.74075e-05
-5.24573e-06
9.74783e-05
-6.01054e-06
9.7554e-05
-6.77258e-06
9.76261e-05
-7.52205e-06
9.76776e-05
-8.24165e-06
9.76773e-05
-8.90268e-06
9.75686e-05
-9.46038e-06
9.72538e-05
-9.84967e-06
9.65721e-05
-9.9846e-06
9.52743e-05
-9.76642e-06
9.30046e-05
-9.10628e-06
8.93072e-05
-7.96437e-06
8.36857e-05
-6.39658e-06
7.57351e-05
-4.58348e-06
6.53365e-05
-2.80881e-06
5.28468e-05
-1.37101e-06
3.91661e-05
-4.57959e-07
2.55805e-05
-6.06299e-08
1.33914e-05
3.50567e-06
4.25205e-08
3.46315e-06
3.49684e-07
1.30842e-05
1.08683e-06
2.48433e-05
2.29192e-06
3.7961e-05
3.83646e-06
5.13023e-05
5.47904e-06
6.3694e-05
6.96469e-06
7.42494e-05
8.10875e-06
8.25416e-05
8.83058e-06
8.85854e-05
9.14061e-06
9.26946e-05
9.10457e-06
9.53104e-05
8.80775e-06
9.68689e-05
8.33086e-06
9.77307e-05
7.73879e-06
9.81606e-05
7.07848e-06
9.83376e-05
6.38133e-06
9.83747e-05
5.66702e-06
9.83404e-05
4.94717e-06
9.82739e-05
4.22812e-06
9.81973e-05
3.51294e-06
9.81227e-05
2.80267e-06
9.80562e-05
2.09721e-06
9.80012e-05
1.39576e-06
9.79591e-05
6.97148e-07
9.79308e-05
-8.55013e-16
9.79166e-05
-6.97148e-07
9.79166e-05
-1.39576e-06
9.79308e-05
-2.09721e-06
9.79591e-05
-2.80267e-06
9.80012e-05
-3.51294e-06
9.80562e-05
-4.22812e-06
9.81227e-05
-4.94717e-06
9.81973e-05
-5.66702e-06
9.82739e-05
-6.38133e-06
9.83404e-05
-7.07848e-06
9.83747e-05
-7.73879e-06
9.83376e-05
-8.33086e-06
9.81606e-05
-8.80775e-06
9.77307e-05
-9.10457e-06
9.68689e-05
-9.14061e-06
9.53104e-05
-8.83058e-06
9.26946e-05
-8.10875e-06
8.85854e-05
-6.96469e-06
8.25416e-05
-5.47904e-06
7.42494e-05
-3.83646e-06
6.3694e-05
-2.29192e-06
5.13023e-05
-1.08683e-06
3.7961e-05
-3.49684e-07
2.48433e-05
-4.25206e-08
1.30842e-05
3.46315e-06
2.61875e-08
3.43696e-06
2.56058e-07
1.28543e-05
8.4091e-07
2.42585e-05
1.83718e-06
3.69647e-05
3.1629e-06
4.99766e-05
4.62751e-06
6.22293e-05
6.00809e-06
7.28689e-05
7.12479e-06
8.14249e-05
7.88094e-06
8.78293e-05
8.26268e-06
9.23129e-05
8.31373e-06
9.52593e-05
8.10456e-06
9.70781e-05
7.7084e-06
9.81268e-05
7.18801e-06
9.8681e-05
6.59108e-06
9.89345e-05
5.95084e-06
9.9015e-05
5.28897e-06
9.90022e-05
4.61872e-06
9.89441e-05
3.94762e-06
9.88684e-05
3.27952e-06
9.87908e-05
2.61598e-06
9.87198e-05
1.95713e-06
9.866e-05
1.30233e-06
9.86139e-05
6.50412e-07
9.85827e-05
-8.092e-16
9.8567e-05
-6.50412e-07
9.8567e-05
-1.30233e-06
9.85827e-05
-1.95713e-06
9.86139e-05
-2.61598e-06
9.866e-05
-3.27952e-06
9.87198e-05
-3.94762e-06
9.87908e-05
-4.61872e-06
9.88684e-05
-5.28897e-06
9.89441e-05
-5.95084e-06
9.90022e-05
-6.59108e-06
9.9015e-05
-7.18801e-06
9.89345e-05
-7.7084e-06
9.8681e-05
-8.10456e-06
9.81268e-05
-8.31373e-06
9.70781e-05
-8.26268e-06
9.52593e-05
-7.88094e-06
9.23129e-05
-7.12479e-06
8.78293e-05
-6.00809e-06
8.14249e-05
-4.62751e-06
7.28689e-05
-3.1629e-06
6.22293e-05
-1.83718e-06
4.99766e-05
-8.4091e-07
3.69647e-05
-2.56059e-07
2.42585e-05
-2.61875e-08
1.28543e-05
3.43696e-06
1.11761e-08
3.42579e-06
1.73596e-07
1.26919e-05
6.25072e-07
2.3807e-05
1.4333e-06
3.61565e-05
2.55232e-06
4.88575e-05
3.83584e-06
6.09458e-05
5.09385e-06
7.16108e-05
6.15775e-06
8.0361e-05
6.92243e-06
8.70646e-05
7.35517e-06
9.18801e-05
7.47979e-06
9.51347e-05
7.35148e-06
9.72064e-05
7.03441e-06
9.84439e-05
6.58737e-06
9.91281e-05
6.05732e-06
9.94645e-05
5.47844e-06
9.95939e-05
4.8738e-06
9.96069e-05
4.25801e-06
9.95599e-05
3.63967e-06
9.94868e-05
3.0234e-06
9.9407e-05
2.41122e-06
9.93319e-05
1.80357e-06
9.92676e-05
1.19992e-06
9.92175e-05
5.992e-07
9.91834e-05
-7.46133e-16
9.91662e-05
-5.992e-07
9.91662e-05
-1.19992e-06
9.91834e-05
-1.80357e-06
9.92175e-05
-2.41122e-06
9.92676e-05
-3.0234e-06
9.93319e-05
-3.63967e-06
9.9407e-05
-4.25801e-06
9.94868e-05
-4.8738e-06
9.95599e-05
-5.47844e-06
9.96069e-05
-6.05732e-06
9.95939e-05
-6.58737e-06
9.94645e-05
-7.03441e-06
9.91281e-05
-7.35148e-06
9.84439e-05
-7.47979e-06
9.72064e-05
-7.35517e-06
9.51347e-05
-6.92243e-06
9.18801e-05
-6.15775e-06
8.70646e-05
-5.09385e-06
8.0361e-05
-3.83584e-06
7.16108e-05
-2.55232e-06
6.09458e-05
-1.4333e-06
4.88575e-05
-6.25072e-07
3.61565e-05
-1.73596e-07
2.3807e-05
-1.11761e-08
1.26919e-05
3.42579e-06
-2.82164e-09
3.42861e-06
9.99431e-08
1.25891e-05
4.33693e-07
2.34733e-05
1.07247e-06
3.55177e-05
1.99795e-06
4.79321e-05
3.10158e-06
5.98422e-05
4.22532e-06
7.04871e-05
5.21598e-06
7.93704e-05
5.96631e-06
8.63143e-05
6.42997e-06
9.14165e-05
6.61366e-06
9.4951e-05
6.55774e-06
9.72623e-05
6.3163e-06
9.86854e-05
5.9427e-06
9.95017e-05
5.48187e-06
9.99254e-05
4.96788e-06
0.000100108
4.4246e-06
0.00010015
3.86762e-06
0.000100117
3.30644e-06
0.000100048
2.74633e-06
9.99671e-05
2.1898e-06
9.98885e-05
1.63757e-06
9.98199e-05
1.08927e-06
9.97659e-05
5.43868e-07
9.97288e-05
-6.66375e-16
9.97101e-05
-5.43868e-07
9.97101e-05
-1.08927e-06
9.97288e-05
-1.63757e-06
9.97659e-05
-2.1898e-06
9.98199e-05
-2.74633e-06
9.98885e-05
-3.30644e-06
9.99671e-05
-3.86762e-06
0.000100048
-4.4246e-06
0.000100117
-4.96788e-06
0.00010015
-5.48187e-06
0.000100108
-5.9427e-06
9.99254e-05
-6.3163e-06
9.95017e-05
-6.55774e-06
9.86854e-05
-6.61366e-06
9.72623e-05
-6.42997e-06
9.4951e-05
-5.96631e-06
9.14165e-05
-5.21598e-06
8.63143e-05
-4.22532e-06
7.93704e-05
-3.10158e-06
7.04871e-05
-1.99795e-06
5.98422e-05
-1.07247e-06
4.79321e-05
-4.33693e-07
3.55177e-05
-9.99432e-08
2.34733e-05
2.82162e-09
1.25891e-05
3.42861e-06
-1.59992e-08
3.44461e-06
3.34079e-08
1.25397e-05
2.62463e-07
2.32442e-05
7.48325e-07
3.50319e-05
1.49372e-06
4.71867e-05
2.42187e-06
5.8914e-05
3.40463e-06
6.95043e-05
4.30658e-06
7.84684e-05
5.02316e-06
8.55977e-05
5.4992e-06
9.09404e-05
5.72737e-06
9.47228e-05
5.73427e-06
9.72554e-05
5.56352e-06
9.88561e-05
5.26199e-06
9.98032e-05
4.87141e-06
0.000100316
4.42481e-06
0.000100554
3.94615e-06
0.000100629
3.4516e-06
0.000100611
2.95132e-06
0.000100548
2.45114e-06
0.000100467
1.95398e-06
0.000100386
1.46083e-06
0.000100313
9.71471e-07
0.000100255
4.84975e-07
0.000100215
-5.70068e-16
0.000100195
-4.84975e-07
0.000100195
-9.71471e-07
0.000100215
-1.46083e-06
0.000100255
-1.95398e-06
0.000100313
-2.45114e-06
0.000100386
-2.95132e-06
0.000100467
-3.4516e-06
0.000100548
-3.94615e-06
0.000100611
-4.42481e-06
0.000100629
-4.87141e-06
0.000100554
-5.26199e-06
0.000100316
-5.56352e-06
9.98032e-05
-5.73427e-06
9.88561e-05
-5.72737e-06
9.72554e-05
-5.4992e-06
9.47228e-05
-5.02316e-06
9.09404e-05
-4.30658e-06
8.55977e-05
-3.40463e-06
7.84684e-05
-2.42187e-06
6.95043e-05
-1.49372e-06
5.8914e-05
-7.48325e-07
4.71867e-05
-2.62463e-07
3.50319e-05
-3.34079e-08
2.32442e-05
1.59992e-08
1.25397e-05
3.44461e-06
-2.84928e-08
3.4731e-06
-2.73081e-08
1.25385e-05
1.07869e-07
2.3109e-05
4.55237e-07
3.46845e-05
1.03356e-06
4.66083e-05
1.79262e-06
5.8155e-05
2.63151e-06
6.86655e-05
3.43362e-06
7.76663e-05
4.10062e-06
8.49307e-05
4.57259e-06
9.04685e-05
4.83125e-06
9.44642e-05
4.89092e-06
9.71957e-05
4.7849e-06
9.89621e-05
4.5529e-06
0.000100035
4.2325e-06
0.000100636
3.85479e-06
0.000100932
3.44318e-06
0.00010104
3.01397e-06
0.000101041
2.57769e-06
0.000100985
2.14061e-06