/*--------------------------------*- C++ -*----------------------------------*\
  =========                 |
  \\      /  F ield         | OpenFOAM: The Open Source CFD Toolbox
   \\    /   O peration     | Website:  https://openfoam.org
    \\  /    A nd           | Version:  6
     \\/     M anipulation  |
\*---------------------------------------------------------------------------*/
FoamFile
{
    version     2.0;
    format      ascii;
    class       volVectorField;
    location    "3200";
    object      U;
}
// * * * * * * * * * * * * * * * * * * * * * * * * * * * * * * * * * * * * * //

dimensions      [0 1 -1 0 0 0 0];

internalField   nonuniform List<vector> 
2500
(
(-0.0135679 0.342187 0)
(0.00857192 0.406104 0)
(0.00755859 0.401935 -1.28857e-19)
(0.00475247 0.400531 1.29397e-19)
(0.00324441 0.400231 0)
(0.0024003 0.40013 0)
(0.00189503 0.40009 0)
(0.00156856 0.400069 0)
(0.0013403 0.400055 0)
(0.0011698 0.400045 0)
(0.00103513 0.400038 3.58622e-20)
(0.000923452 0.400032 -7.05193e-20)
(0.000826988 0.400027 3.46486e-20)
(0.000740904 0.400023 -3.23088e-20)
(0.000662114 0.400019 3.23941e-20)
(0.000588604 0.400016 0)
(0.000519022 0.400014 0)
(0.000452434 0.400011 1.45629e-20)
(0.000388169 0.40001 -1.45936e-20)
(0.000325725 0.400008 0)
(0.000264711 0.400007 0)
(0.000204801 0.400006 0)
(0.000145716 0.400005 0)
(8.72032e-05 0.400004 0)
(2.90298e-05 0.400004 0)
(-2.90298e-05 0.400004 0)
(-8.72032e-05 0.400004 0)
(-0.000145716 0.400005 0)
(-0.000204801 0.400006 0)
(-0.000264711 0.400007 0)
(-0.000325725 0.400008 0)
(-0.000388169 0.40001 -1.45936e-20)
(-0.000452434 0.400011 1.45629e-20)
(-0.000519022 0.400014 0)
(-0.000588604 0.400016 0)
(-0.000662114 0.400019 3.23941e-20)
(-0.000740904 0.400023 -3.23088e-20)
(-0.000826988 0.400027 3.46486e-20)
(-0.000923452 0.400032 -7.05193e-20)
(-0.00103513 0.400038 3.58622e-20)
(-0.0011698 0.400045 0)
(-0.0013403 0.400055 0)
(-0.00156856 0.400069 0)
(-0.00189503 0.40009 0)
(-0.0024003 0.40013 0)
(-0.00324441 0.400231 0)
(-0.00475247 0.400531 1.29397e-19)
(-0.00755859 0.401935 -1.28857e-19)
(-0.00857192 0.406104 0)
(0.0135679 0.342187 0)
(-0.0294303 0.23469 0)
(0.00890597 0.379278 0)
(0.0161703 0.40126 0)
(0.0133429 0.402199 0)
(0.00993967 0.401269 0)
(0.00754419 0.400705 1.2462e-19)
(0.00596925 0.400429 -1.25257e-19)
(0.00491557 0.400286 0)
(0.00417531 0.400205 0)
(0.00362531 0.400157 0)
(0.00319455 0.400126 4.81722e-20)
(0.00284065 0.400106 -4.83667e-20)
(0.00253764 0.400093 0)
(0.00226926 0.400083 0)
(0.00202509 0.400076 0)
(0.00179834 0.400071 0)
(0.00158446 0.400067 0)
(0.00138032 0.400064 -1.95612e-20)
(0.00118368 0.400062 1.96162e-20)
(0.000992894 0.40006 0)
(0.000806674 0.400058 0)
(0.000623971 0.400057 0)
(0.000443887 0.400056 0)
(0.000265618 0.400056 0)
(8.84203e-05 0.400055 0)
(-8.84203e-05 0.400055 0)
(-0.000265618 0.400056 0)
(-0.000443887 0.400056 0)
(-0.000623971 0.400057 0)
(-0.000806674 0.400058 0)
(-0.000992894 0.40006 0)
(-0.00118368 0.400062 1.96162e-20)
(-0.00138032 0.400064 -1.95612e-20)
(-0.00158446 0.400067 0)
(-0.00179834 0.400071 0)
(-0.00202509 0.400076 0)
(-0.00226926 0.400083 0)
(-0.00253764 0.400093 0)
(-0.00284065 0.400106 -4.83667e-20)
(-0.00319455 0.400126 4.81722e-20)
(-0.00362531 0.400157 0)
(-0.00417531 0.400205 0)
(-0.00491558 0.400286 0)
(-0.00596925 0.400429 -1.25257e-19)
(-0.00754419 0.400705 1.2462e-19)
(-0.00993967 0.401269 0)
(-0.0133429 0.402199 0)
(-0.0161703 0.40126 0)
(-0.00890597 0.379278 0)
(0.0294303 0.23469 0)
(-0.0360942 0.170277 0)
(-0.00509348 0.339477 0)
(0.014924 0.392316 0)
(0.0181583 0.402658 0)
(0.0155836 0.402907 0)
(0.012533 0.401956 0)
(0.0101356 0.401263 0)
(0.00839956 0.400849 0)
(0.00713817 0.400605 0)
(0.00618911 0.400456 0)
(0.00544351 0.400362 0)
(0.00483185 0.400302 0)
(0.00430989 0.400261 0)
(0.00384933 0.400234 0)
(0.0034318 0.400215 0)
(0.00304521 0.400201 0)
(0.00268143 0.40019 0)
(0.00233485 0.400182 0)
(0.00200149 0.400176 0)
(0.0016784 0.400171 0)
(0.0013633 0.400168 0)
(0.00105435 0.400165 0)
(0.00074996 0.400163 0)
(0.000448734 0.400162 0)
(0.000149371 0.400161 0)
(-0.000149371 0.400161 0)
(-0.000448734 0.400162 0)
(-0.00074996 0.400163 0)
(-0.00105435 0.400165 0)
(-0.0013633 0.400168 0)
(-0.0016784 0.400171 0)
(-0.00200149 0.400176 0)
(-0.00233485 0.400182 0)
(-0.00268143 0.40019 0)
(-0.00304521 0.400201 0)
(-0.0034318 0.400215 0)
(-0.00384933 0.400234 0)
(-0.00430989 0.400261 0)
(-0.00483185 0.400302 0)
(-0.00544351 0.400362 0)
(-0.00618911 0.400456 0)
(-0.00713817 0.400605 0)
(-0.00839956 0.400849 0)
(-0.0101356 0.401263 0)
(-0.012533 0.401956 0)
(-0.0155836 0.402907 0)
(-0.0181583 0.402658 0)
(-0.014924 0.392316 0)
(0.00509348 0.339477 0)
(0.0360942 0.170277 0)
(-0.0373157 0.121414 1.57519e-19)
(-0.0208427 0.295517 -1.62422e-19)
(0.00613546 0.374602 0)
(0.0177237 0.39919 0)
(0.0188437 0.403785 0)
(0.0166414 0.403439 0)
(0.0140455 0.402477 0)
(0.0118569 0.401738 -1.11538e-19)
(0.0101502 0.401255 1.12059e-19)
(0.00882184 0.400948 0)
(0.00776157 0.400751 4.83332e-20)
(0.00688606 0.400623 -4.85248e-20)
(0.00613766 0.400537 4.47697e-20)
(0.00547766 0.400478 -4.49306e-20)
(0.00488022 0.400437 0)
(0.00432799 0.400407 4.07457e-20)
(0.00380915 0.400385 -4.08712e-20)
(0.00331552 0.400368 1.93989e-20)
(0.00284124 0.400355 -3.84655e-20)
(0.00238199 0.400345 3.77558e-20)
(0.00193441 0.400337 -1.87383e-20)
(0.0014958 0.400331 9.12317e-21)
(0.00106385 0.400327 -9.14196e-21)
(0.0006365 0.400324 0)
(0.000211866 0.400323 0)
(-0.000211866 0.400323 0)
(-0.0006365 0.400324 0)
(-0.00106385 0.400327 -9.14196e-21)
(-0.0014958 0.400331 9.12317e-21)
(-0.00193441 0.400337 -1.87383e-20)
(-0.00238199 0.400345 3.77558e-20)
(-0.00284124 0.400355 -3.84655e-20)
(-0.00331552 0.400368 1.93989e-20)
(-0.00380915 0.400385 -4.08712e-20)
(-0.00432799 0.400407 4.07457e-20)
(-0.00488022 0.400437 0)
(-0.00547766 0.400478 -4.49306e-20)
(-0.00613766 0.400537 4.47697e-20)
(-0.00688606 0.400623 -4.85248e-20)
(-0.00776157 0.400751 4.83332e-20)
(-0.00882184 0.400948 0)
(-0.0101502 0.401255 1.12059e-19)
(-0.0118569 0.401738 -1.11538e-19)
(-0.0140455 0.402477 0)
(-0.0166414 0.403439 0)
(-0.0188437 0.403785 0)
(-0.0177237 0.39919 0)
(-0.00613546 0.374602 0)
(0.0208427 0.295517 -1.62422e-19)
(0.0373157 0.121414 1.57519e-19)
(-0.0347248 0.0866635 0)
(-0.0327756 0.252123 -1.65336e-19)
(-0.00569697 0.349777 -4.6785e-21)
(0.0127869 0.390319 3.11785e-19)
(0.0191311 0.402398 -1.24361e-20)
(0.0192703 0.404366 -1.08992e-20)
(0.0173277 0.403744 -9.02349e-21)
(0.0150886 0.402825 -7.4555e-21)
(0.0131091 0.402106 -2.1829e-19)
(0.0114708 0.401611 5.42151e-21)
(0.0101212 0.401282 1.01464e-19)
(0.00898861 0.401061 0)
(0.00801302 0.400913 0)
(0.00714993 0.40081 -4.3187e-20)
(0.00636798 0.400738 8.5154e-20)
(0.00564537 0.400686 -1.34448e-21)
(0.00496692 0.400647 -8.02798e-20)
(0.00432195 0.400618 3.96593e-20)
(0.00370274 0.400596 0)
(0.00310356 0.400578 1.85909e-20)
(0.00251996 0.400565 -3.69649e-20)
(0.00194831 0.400555 1.83703e-20)
(0.00138554 0.400547 -9.00122e-21)
(0.000828912 0.400543 4.53429e-21)
(0.000275904 0.40054 4.49144e-21)
(-0.000275904 0.40054 4.49144e-21)
(-0.000828912 0.400543 4.53429e-21)
(-0.00138554 0.400547 -9.00122e-21)
(-0.00194831 0.400555 1.83703e-20)
(-0.00251996 0.400565 -3.69649e-20)
(-0.00310356 0.400578 1.85909e-20)
(-0.00370274 0.400596 0)
(-0.00432195 0.400618 3.96593e-20)
(-0.00496692 0.400647 -8.02798e-20)
(-0.00564537 0.400686 -1.34448e-21)
(-0.00636798 0.400738 8.5154e-20)
(-0.00714993 0.40081 -4.3187e-20)
(-0.00801302 0.400913 0)
(-0.00898861 0.401061 0)
(-0.0101212 0.401282 1.01464e-19)
(-0.0114708 0.401611 5.42151e-21)
(-0.0131091 0.402106 -2.1829e-19)
(-0.0150886 0.402825 -7.4555e-21)
(-0.0173277 0.403744 -9.02349e-21)
(-0.0192703 0.404366 -1.08992e-20)
(-0.0191311 0.402398 -1.24361e-20)
(-0.0127869 0.390319 3.11785e-19)
(0.00569697 0.349777 -4.6785e-21)
(0.0327756 0.252123 -1.65336e-19)
(0.0347248 0.0866635 0)
(-0.0305578 0.0634019 -8.29558e-20)
(-0.0398838 0.213149 8.62731e-20)
(-0.0172049 0.320918 0)
(0.00512087 0.376215 1.43945e-19)
(0.0166556 0.397808 -2.779e-19)
(0.0201219 0.403955 1.34969e-19)
(0.0196803 0.404641 -1.18332e-19)
(0.0178947 0.40392 2.30597e-19)
(0.0158994 0.403078 -1.12236e-19)
(0.0140725 0.402413 0)
(0.0124877 0.401941 -4.83481e-20)
(0.0111207 0.401614 9.49345e-20)
(0.00992568 0.401388 -1.91238e-21)
(0.00886047 0.401231 -4.48123e-20)
(0.00789194 0.40112 -4.17071e-20)
(0.00699561 0.401039 8.23103e-20)
(0.00615377 0.400979 -1.20557e-21)
(0.0053536 0.400934 -2.02752e-20)
(0.0045857 0.400899 -4.52351e-22)
(0.00384296 0.400872 -3.80236e-22)
(0.00311985 0.400852 -1.85306e-20)
(0.00241182 0.400836 0)
(0.00171501 0.400825 0)
(0.00102596 0.400817 0)
(0.000341481 0.400814 0)
(-0.000341481 0.400814 0)
(-0.00102596 0.400817 0)
(-0.00171501 0.400825 0)
(-0.00241182 0.400836 0)
(-0.00311985 0.400852 -1.85306e-20)
(-0.00384296 0.400872 -3.80236e-22)
(-0.0045857 0.400899 -4.52351e-22)
(-0.0053536 0.400934 -2.02752e-20)
(-0.00615377 0.400979 -1.20557e-21)
(-0.00699561 0.401039 8.23103e-20)
(-0.00789194 0.40112 -4.17071e-20)
(-0.00886047 0.401231 -4.48123e-20)
(-0.00992568 0.401388 -1.91238e-21)
(-0.0111207 0.401614 9.49345e-20)
(-0.0124877 0.401941 -4.83481e-20)
(-0.0140725 0.402413 0)
(-0.0158994 0.403078 -1.12236e-19)
(-0.0178947 0.40392 2.30597e-19)
(-0.0196803 0.404641 -1.18332e-19)
(-0.0201219 0.403955 1.34969e-19)
(-0.0166556 0.397808 -2.779e-19)
(-0.00512087 0.376215 1.43945e-19)
(0.0172049 0.320918 0)
(0.0398838 0.213149 8.62731e-20)
(0.0305578 0.0634019 -8.29558e-20)
(-0.0261958 0.04805 -6.83298e-20)
(-0.0429133 0.180184 -5.00947e-20)
(-0.026616 0.29101 2.54298e-19)
(-0.00349726 0.358073 -2.71627e-19)
(0.0121268 0.38978 4.34963e-21)
(0.0192272 0.401623 1.31192e-19)
(0.0209317 0.404733 1.17607e-19)
(0.0201095 0.40478 -2.29495e-19)
(0.0184077 0.404054 1.11906e-19)
(0.016558 0.403302 -1.0101e-19)
(0.0148216 0.402706 1.49729e-19)
(0.0132597 0.402271 -4.84967e-20)
(0.0118628 0.401961 4.45834e-20)
(0.010602 0.401741 -8.77363e-20)
(0.00944794 0.401583 1.55348e-21)
(0.00837632 0.401467 8.20439e-20)
(0.0073683 0.401382 -4.04471e-20)
(0.00640965 0.401317 1.91323e-20)
(0.0054896 0.401267 -3.79049e-20)
(0.00459988 0.401228 3.71518e-20)
(0.00373389 0.401198 -1.84251e-20)
(0.00288622 0.401176 0)
(0.00205218 0.40116 0)
(0.0012276 0.401149 0)
(0.000408583 0.401144 0)
(-0.000408583 0.401144 0)
(-0.0012276 0.401149 0)
(-0.00205218 0.40116 0)
(-0.00288622 0.401176 0)
(-0.00373389 0.401198 -1.84251e-20)
(-0.00459988 0.401228 3.71518e-20)
(-0.0054896 0.401267 -3.79049e-20)
(-0.00640965 0.401317 1.91323e-20)
(-0.0073683 0.401382 -4.04471e-20)
(-0.00837632 0.401467 8.20439e-20)
(-0.00944794 0.401583 1.55348e-21)
(-0.010602 0.401741 -8.77363e-20)
(-0.0118628 0.401961 4.45834e-20)
(-0.0132597 0.402271 -4.84967e-20)
(-0.0148216 0.402706 1.49729e-19)
(-0.016558 0.403302 -1.0101e-19)
(-0.0184077 0.404054 1.11906e-19)
(-0.0201095 0.40478 -2.29495e-19)
(-0.0209317 0.404733 1.17607e-19)
(-0.0192272 0.401623 1.31192e-19)
(-0.0121268 0.38978 4.34963e-21)
(0.00349726 0.358073 -2.71627e-19)
(0.026616 0.29101 2.54298e-19)
(0.0429133 0.180184 -5.00947e-20)
(0.0261958 0.04805 -6.83298e-20)
(-0.0222149 0.0378842 3.78899e-20)
(-0.0430238 0.153235 0)
(-0.033317 0.262177 0)
(-0.0117208 0.337414 0)
(0.00643004 0.378633 1.27781e-19)
(0.0168746 0.397081 -1.27143e-19)
(0.0210616 0.40365 0)
(0.0216292 0.405149 -1.10911e-19)
(0.0205385 0.404888 1.11334e-19)
(0.0188609 0.404203 0)
(0.0170808 0.403543 0)
(0.0153807 0.403017 0)
(0.0138098 0.402624 0)
(0.0123659 0.402337 4.2893e-20)
(0.0110309 0.402127 -1.57058e-21)
(0.0097845 0.401972 -4.15818e-20)
(0.0086087 0.401856 0)
(0.00748896 0.401768 0)
(0.00641373 0.4017 -1.86233e-20)
(0.00537382 0.401647 3.69447e-20)
(0.00436175 0.401607 -1.83179e-20)
(0.00337127 0.401576 8.89548e-21)
(0.00239691 0.401554 -8.91282e-21)
(0.00143374 0.40154 0)
(0.000477184 0.401533 0)
(-0.000477184 0.401533 0)
(-0.00143374 0.40154 0)
(-0.00239691 0.401554 -8.91282e-21)
(-0.00337127 0.401576 8.89548e-21)
(-0.00436175 0.401607 -1.83179e-20)
(-0.00537382 0.401647 3.69447e-20)
(-0.00641373 0.4017 -1.86233e-20)
(-0.00748896 0.401768 0)
(-0.0086087 0.401856 0)
(-0.0097845 0.401972 -4.15818e-20)
(-0.0110309 0.402127 -1.57058e-21)
(-0.0123659 0.402337 4.2893e-20)
(-0.0138098 0.402624 0)
(-0.0153807 0.403017 0)
(-0.0170808 0.403543 0)
(-0.0188609 0.404203 0)
(-0.0205385 0.404888 1.11334e-19)
(-0.0216292 0.405149 -1.10911e-19)
(-0.0210616 0.40365 0)
(-0.0168746 0.397081 -1.27143e-19)
(-0.00643004 0.378633 1.27781e-19)
(0.0117208 0.337414 0)
(0.033317 0.262177 0)
(0.0430238 0.153235 0)
(0.0222149 0.0378842 -3.78899e-20)
(-0.0187966 0.0310995 4.24853e-20)
(-0.0412849 0.131637 0)
(-0.0373825 0.235679 -1.19104e-19)
(-0.0187197 0.315677 1.15409e-19)
(0.000396838 0.365022 0)
(0.013499 0.390331 1.20354e-19)
(0.0201855 0.401154 -1.20146e-19)
(0.0224244 0.40479 0)
(0.0222276 0.40542 0)
(0.0209246 0.405024 0)
(0.0192256 0.404401 0)
(0.0174579 0.403827 4.61797e-20)
(0.0157508 0.403365 -4.63375e-20)
(0.0141427 0.403014 0)
(0.0126351 0.402751 0)
(0.0112166 0.402553 0)
(0.00987274 0.402404 0)
(0.00859011 0.402289 0)
(0.00735715 0.4022 0)
(0.00616416 0.402132 0)
(0.005003 0.402078 0)
(0.00386667 0.402038 0)
(0.00274899 0.402009 0)
(0.00164428 0.40199 0)
(0.000547245 0.401981 0)
(-0.000547245 0.401981 0)
(-0.00164428 0.40199 0)
(-0.00274899 0.402009 0)
(-0.00386667 0.402038 0)
(-0.005003 0.402078 0)
(-0.00616416 0.402132 0)
(-0.00735715 0.4022 0)
(-0.00859011 0.402289 0)
(-0.00987274 0.402404 0)
(-0.0112166 0.402553 0)
(-0.0126351 0.402751 0)
(-0.0141427 0.403014 0)
(-0.0157508 0.403365 -4.63375e-20)
(-0.0174579 0.403827 4.61797e-20)
(-0.0192256 0.404401 0)
(-0.0209246 0.405024 0)
(-0.0222276 0.40542 0)
(-0.0224244 0.40479 0)
(-0.0201855 0.401154 -1.20146e-19)
(-0.013499 0.390331 1.20354e-19)
(-0.000396838 0.365022 0)
(0.0187197 0.315677 1.15409e-19)
(0.0373825 0.235679 -1.19104e-19)
(0.0412849 0.131637 0)
(0.0187966 0.0310995 -4.24853e-20)
(-0.0159505 0.0265081 -6.26405e-20)
(-0.0385186 0.114528 1.6157e-19)
(-0.0392215 0.212118 2.16441e-20)
(-0.0241093 0.294029 -1.09514e-19)
(-0.005318 0.349742 0)
(0.00957643 0.381609 0)
(0.0185159 0.397156 1.14154e-19)
(0.0225388 0.40353 -4.68782e-21)
(0.0234495 0.405503 -4.94347e-21)
(0.0227088 0.405666 -1.05116e-19)
(0.0212216 0.405224 4.80209e-20)
(0.0194669 0.404669 -4.81845e-20)
(0.0176695 0.404169 -4.42695e-20)
(0.015922 0.403765 8.70482e-20)
(0.0142541 0.403451 -4.27668e-20)
(0.0126685 0.40321 3.98593e-20)
(0.0111578 0.403025 -1.26488e-21)
(0.00971141 0.402881 -1.99528e-20)
(0.00831869 0.402769 -3.73075e-20)
(0.00697008 0.402682 1.84575e-20)
(0.00565705 0.402614 -1.77703e-20)
(0.00437203 0.402563 1.78058e-20)
(0.00310815 0.402526 -8.70323e-21)
(0.00185906 0.402501 4.38615e-21)
(0.000618717 0.40249 4.33927e-21)
(-0.000618717 0.40249 4.33927e-21)
(-0.00185906 0.402501 4.38615e-21)
(-0.00310815 0.402526 -8.70323e-21)
(-0.00437203 0.402563 1.78058e-20)
(-0.00565705 0.402614 -1.77703e-20)
(-0.00697008 0.402682 1.84575e-20)
(-0.00831869 0.402769 -3.73075e-20)
(-0.00971141 0.402881 -1.99528e-20)
(-0.0111578 0.403025 -1.26488e-21)
(-0.0126685 0.40321 3.98593e-20)
(-0.0142541 0.403451 -4.27668e-20)
(-0.015922 0.403765 8.70482e-20)
(-0.0176695 0.404169 -4.42695e-20)
(-0.0194669 0.404669 -4.81845e-20)
(-0.0212216 0.405224 4.80209e-20)
(-0.0227088 0.405666 -1.05116e-19)
(-0.0234495 0.405503 -4.94347e-21)
(-0.0225388 0.40353 -4.68782e-21)
(-0.0185159 0.397156 1.14154e-19)
(-0.00957643 0.381609 0)
(0.005318 0.349742 0)
(0.0241093 0.294029 -1.09514e-19)
(0.0392215 0.212118 2.16441e-20)
(0.0385186 0.114528 1.6157e-19)
(0.0159505 0.0265081 -6.26405e-20)
(-0.0136126 0.0233319 0)
(-0.0352883 0.101045 0)
(-0.0393458 0.19165 -1.0925e-19)
(-0.0278236 0.273313 -1.11594e-20)
(-0.010274 0.333576 2.32595e-19)
(0.00554446 0.3713 -2.33371e-19)
(0.0163159 0.391709 2.83009e-21)
(0.0220755 0.401269 4.09143e-21)
(0.0242181 0.405013 2.1311e-19)
(0.0241941 0.406033 -1.0453e-19)
(0.0230434 0.405949 4.7871e-20)
(0.0213864 0.405508 -9.39487e-20)
(0.0195509 0.405016 4.60694e-20)
(0.0176935 0.40458 0)
(0.015881 0.404224 4.10091e-20)
(0.0141359 0.403941 -8.08034e-20)
(0.0124611 0.403719 1.27598e-21)
(0.0108509 0.403545 3.86037e-20)
(0.00929697 0.403408 -1.83064e-20)
(0.00779058 0.4033 1.83466e-20)
(0.00632318 0.403216 0)
(0.00488682 0.403152 -8.71497e-21)
(0.00347405 0.403106 9.08586e-23)
(0.00207787 0.403076 4.35464e-21)
(0.000691532 0.403061 4.30702e-21)
(-0.000691532 0.403061 4.30702e-21)
(-0.00207787 0.403076 4.35464e-21)
(-0.00347405 0.403106 9.08586e-23)
(-0.00488682 0.403152 -8.71497e-21)
(-0.00632318 0.403216 0)
(-0.00779058 0.4033 1.83466e-20)
(-0.00929697 0.403408 -1.83064e-20)
(-0.0108509 0.403545 3.86037e-20)
(-0.0124611 0.403719 1.27598e-21)
(-0.0141359 0.403941 -8.08034e-20)
(-0.015881 0.404224 4.10091e-20)
(-0.0176935 0.40458 0)
(-0.0195509 0.405016 4.60694e-20)
(-0.0213864 0.405508 -9.39487e-20)
(-0.0230434 0.405949 4.7871e-20)
(-0.0241941 0.406033 -1.0453e-19)
(-0.0242181 0.405013 2.1311e-19)
(-0.0220755 0.401269 4.09143e-21)
(-0.0163159 0.391709 2.83009e-21)
(-0.00554446 0.3713 -2.33371e-19)
(0.010274 0.333576 2.32595e-19)
(0.0278236 0.273313 -1.11594e-20)
(0.0393458 0.19165 -1.0925e-19)
(0.0352883 0.101045 0)
(0.0136126 0.0233319 0)
(-0.0116946 0.0210713 6.31204e-20)
(-0.0319451 0.0904237 0)
(-0.0382417 0.174153 0)
(-0.0299904 0.254069 -1.14446e-19)
(-0.0142281 0.317212 1.11578e-19)
(0.00175751 0.359859 1.15109e-19)
(0.0138568 0.384976 -1.14095e-19)
(0.0211774 0.397992 0)
(0.0245833 0.40387 5.18722e-20)
(0.025383 0.406045 -1.01712e-19)
(0.024677 0.406515 4.98772e-20)
(0.0232001 0.406303 -4.57691e-20)
(0.0213812 0.405883 4.59029e-20)
(0.0194474 0.405446 0)
(0.017509 0.405062 0)
(0.015614 0.404744 0)
(0.0137791 0.404487 0)
(0.0120061 0.404281 0)
(0.0102903 0.404117 0)
(0.00862446 0.403987 1.78223e-20)
(0.0070005 0.403886 -1.78581e-20)
(0.00541039 0.403808 0)
(0.00384624 0.403751 0)
(0.00230046 0.403715 0)
(0.000765605 0.403697 0)
(-0.000765605 0.403697 0)
(-0.00230046 0.403715 0)
(-0.00384624 0.403751 0)
(-0.00541039 0.403808 0)
(-0.0070005 0.403886 -1.78581e-20)
(-0.00862446 0.403987 1.78223e-20)
(-0.0102903 0.404117 0)
(-0.0120061 0.404281 0)
(-0.0137791 0.404487 0)
(-0.015614 0.404744 0)
(-0.017509 0.405062 0)
(-0.0194474 0.405446 0)
(-0.0213812 0.405883 4.59029e-20)
(-0.0232001 0.406303 -4.57691e-20)
(-0.024677 0.406515 4.98772e-20)
(-0.025383 0.406045 -1.01712e-19)
(-0.0245833 0.40387 5.18722e-20)
(-0.0211774 0.397992 0)
(-0.0138568 0.384976 -1.14095e-19)
(-0.00175751 0.359859 1.15109e-19)
(0.0142281 0.317212 1.11578e-19)
(0.0299904 0.254069 -1.14446e-19)
(0.0382417 0.174153 0)
(0.0319451 0.0904237 0)
(0.0116946 0.0210713 -6.31204e-20)
(-0.0101091 0.0194113 -6.97903e-20)
(-0.0286866 0.0820315 0)
(-0.036313 0.159357 0)
(-0.0308315 0.236589 0)
(-0.017093 0.301199 0)
(-0.0015293 0.347748 -1.14022e-19)
(0.0113874 0.377197 1.12772e-19)
(0.0200068 0.393755 0)
(0.0246224 0.402037 -5.16225e-20)
(0.0262993 0.405638 2.12268e-21)
(0.0261207 0.406867 2.12309e-21)
(0.024898 0.407017 9.32302e-20)
(0.0231497 0.406744 -4.57157e-20)
(0.0211746 0.406349 0)
(0.0191313 0.405958 0)
(0.0170979 0.405614 0)
(0.0151085 0.405326 -1.90421e-20)
(0.0131746 0.40509 5.67127e-22)
(0.0112968 0.404899 1.85583e-20)
(0.00947025 0.404746 0)
(0.00768792 0.404625 -8.69765e-21)
(0.00594194 0.404532 8.7136e-21)
(0.00422418 0.404464 4.25315e-21)
(0.0025265 0.40442 -2.14388e-21)
(0.000840831 0.404398 -2.11942e-21)
(-0.000840831 0.404398 -2.11942e-21)
(-0.0025265 0.40442 -2.14388e-21)
(-0.00422418 0.404464 4.25315e-21)
(-0.00594194 0.404532 8.7136e-21)
(-0.00768792 0.404625 -8.69765e-21)
(-0.00947025 0.404746 0)
(-0.0112968 0.404899 1.85583e-20)
(-0.0131746 0.40509 5.67127e-22)
(-0.0151085 0.405326 -1.90421e-20)
(-0.0170979 0.405614 0)
(-0.0191313 0.405958 0)
(-0.0211746 0.406349 0)
(-0.0231497 0.406744 -4.57157e-20)
(-0.024898 0.407017 9.32302e-20)
(-0.0261207 0.406867 2.12309e-21)
(-0.0262993 0.405638 2.12268e-21)
(-0.0246224 0.402037 -5.16225e-20)
(-0.0200068 0.393755 0)
(-0.0113874 0.377197 1.12772e-19)
(0.0015293 0.347748 -1.14022e-19)
(0.017093 0.301199 0)
(0.0308315 0.236589 0)
(0.036313 0.159357 0)
(0.0286866 0.0820315 0)
(0.0101091 0.0194113 6.97904e-20)
(-0.00878032 0.0181554 0)
(-0.0256092 0.0753685 0)
(-0.0338671 0.146938 0)
(-0.0305962 0.220983 0)
(-0.0188888 0.28594 0)
(-0.0041562 0.335392 0)
(0.00911477 0.368654 0)
(0.0187265 0.388674 0)
(0.0244302 0.399523 0)
(0.0269846 0.404778 4.93366e-20)
(0.0273855 0.406962 -4.94013e-20)
(0.0264772 0.407613 -4.54003e-20)
(0.0248492 0.407576 4.55082e-20)
(0.0228675 0.407274 0)
(0.0207414 0.406905 0)
(0.0185824 0.406549 0)
(0.0164452 0.406236 0)
(0.0143534 0.405972 0)
(0.0123142 0.405753 0)
(0.0103262 0.405576 0)
(0.00838413 0.405434 0)
(0.00648052 0.405325 0)
(0.0046072 0.405246 0)
(0.00275561 0.405193 0)
(0.000917081 0.405167 0)
(-0.000917081 0.405167 0)
(-0.00275561 0.405193 0)
(-0.0046072 0.405246 0)
(-0.00648052 0.405325 0)
(-0.00838413 0.405434 0)
(-0.0103262 0.405576 0)
(-0.0123142 0.405753 0)
(-0.0143534 0.405972 0)
(-0.0164452 0.406236 0)
(-0.0185824 0.406549 0)
(-0.0207414 0.406905 0)
(-0.0228675 0.407274 0)
(-0.0248492 0.407576 4.55082e-20)
(-0.0264772 0.407613 -4.54003e-20)
(-0.0273855 0.406962 -4.94013e-20)
(-0.0269846 0.404778 4.93366e-20)
(-0.0244302 0.399523 0)
(-0.0187265 0.388674 0)
(-0.00911477 0.368654 0)
(0.0041562 0.335392 0)
(0.0188888 0.28594 0)
(0.0305962 0.220983 0)
(0.0338671 0.146938 0)
(0.0256092 0.0753685 0)
(0.00878032 0.0181554 0)
(-0.00764655 0.0171816 1.67109e-19)
(-0.0227463 0.0700507 -9.11382e-20)
(-0.0311229 0.136564 0)
(-0.0295206 0.207236 0)
(-0.0197009 0.27171 0)
(-0.00604376 0.323156 0)
(0.00719629 0.359634 -5.50777e-20)
(0.0174861 0.382909 5.45994e-20)
(0.0241092 0.396381 0)
(0.0274935 0.403457 -4.91362e-20)
(0.0284934 0.406771 2.0472e-21)
(0.027942 0.408062 4.71895e-20)
(0.0264761 0.408356 0)
(0.0245205 0.408206 0)
(0.0223337 0.407892 0)
(0.0200628 0.407544 0)
(0.0177854 0.407215 0)
(0.0155393 0.406926 0)
(0.01334 0.406682 0)
(0.0111904 0.40648 0)
(0.00908759 0.406317 0)
(0.00702497 0.40619 0)
(0.0049945 0.406097 0)
(0.00298731 0.406037 0)
(0.000994198 0.406006 0)
(-0.000994198 0.406006 0)
(-0.00298731 0.406037 0)
(-0.0049945 0.406097 0)
(-0.00702497 0.40619 0)
(-0.00908759 0.406317 0)
(-0.0111904 0.40648 0)
(-0.01334 0.406682 0)
(-0.0155393 0.406926 0)
(-0.0177854 0.407215 0)
(-0.0200628 0.407544 0)
(-0.0223337 0.407892 0)
(-0.0245205 0.408206 0)
(-0.0264761 0.408356 0)
(-0.027942 0.408062 4.71895e-20)
(-0.0284934 0.406771 2.0472e-21)
(-0.0274935 0.403457 -4.91362e-20)
(-0.0241092 0.396381 0)
(-0.0174861 0.382909 5.45994e-20)
(-0.00719629 0.359634 -5.50777e-20)
(0.00604376 0.323156 0)
(0.0197009 0.27171 0)
(0.0295206 0.207236 0)
(0.0311229 0.136564 0)
(0.0227463 0.0700507 -9.11382e-20)
(0.00764655 0.0171816 3.43847e-21)
(-0.00665971 0.016414 -2.74387e-21)
(-0.0200956 0.065788 1.99871e-19)
(-0.0282267 0.127932 8.5602e-21)
(-0.0278082 0.195259 -2.1994e-19)
(-0.0196465 0.258671 -3.97793e-21)
(-0.00717372 0.311331 1.11885e-19)
(0.00574009 0.350414 5.50025e-20)
(0.016413 0.376641 -1.07543e-19)
(0.0237607 0.392696 1.0384e-19)
(0.0278889 0.401695 -5.09156e-20)
(0.0294752 0.406283 0)
(0.0293032 0.408344 0)
(0.0280311 0.409064 4.31323e-20)
(0.0261298 0.409131 -4.32161e-20)
(0.0239033 0.408912 0)
(0.0215341 0.408593 0)
(0.0191248 0.40826 0)
(0.0167288 0.407953 0)
(0.0143712 0.407684 1.76445e-20)
(0.0120605 0.407458 -1.76761e-20)
(0.00979649 0.407273 0)
(0.00757393 0.407128 8.35622e-21)
(0.00538512 0.407022 -8.36917e-21)
(0.00322104 0.406951 2.05782e-21)
(0.001072 0.406916 -2.0607e-21)
(-0.001072 0.406916 -2.0607e-21)
(-0.00322104 0.406951 2.05782e-21)
(-0.00538512 0.407022 -8.36917e-21)
(-0.00757393 0.407128 8.35622e-21)
(-0.00979649 0.407273 0)
(-0.0120605 0.407458 -1.76761e-20)
(-0.0143712 0.407684 1.76445e-20)
(-0.0167288 0.407953 0)
(-0.0191248 0.40826 0)
(-0.0215341 0.408593 0)
(-0.0239033 0.408912 0)
(-0.0261298 0.409131 -4.32161e-20)
(-0.0280311 0.409064 4.31323e-20)
(-0.0293032 0.408344 0)
(-0.0294752 0.406283 0)
(-0.0278889 0.401695 -5.09156e-20)
(-0.0237607 0.392696 1.0384e-19)
(-0.016413 0.376641 -1.07543e-19)
(-0.00574009 0.350414 5.50025e-20)
(0.00717372 0.311331 1.11885e-19)
(0.0196465 0.258671 -3.97793e-21)
(0.0278082 0.195259 -2.1994e-19)
(0.0282267 0.127932 8.5602e-21)
(0.0200956 0.065788 1.99871e-19)
(0.00665971 0.016414 -1.77252e-19)
(-0.00578288 0.0158045 9.23267e-20)
(-0.0176363 0.0623638 0)
(-0.0252696 0.120775 0)
(-0.0256231 0.184921 0)
(-0.0188515 0.246904 0)
(-0.00757006 0.300142 0)
(0.00481033 0.341243 0)
(0.015608 0.370064 5.30338e-20)
(0.0234777 0.38858 -5.2665e-20)
(0.0282361 0.399539 4.87511e-20)
(0.0303683 0.405505 -2.02579e-21)
(0.0305778 0.408447 -9.1387e-20)
(0.0295189 0.409688 4.47522e-20)
(0.0276939 0.410036 0)
(0.025446 0.409955 0)
(0.0229918 0.409691 -1.91034e-20)
(0.020459 0.409369 1.91393e-20)
(0.0179181 0.40905 1.79406e-20)
(0.0154047 0.408761 -1.79723e-20)
(0.0129339 0.408511 0)
(0.0105087 0.408304 -8.38705e-21)
(0.00812579 0.408141 8.40006e-21)
(0.00577795 0.408019 -4.0932e-21)
(0.00345613 0.407939 4.09897e-21)
(0.00115025 0.407899 0)
(-0.00115025 0.407899 0)
(-0.00345613 0.407939 4.09897e-21)
(-0.00577795 0.408019 -4.0932e-21)
(-0.00812579 0.408141 8.40006e-21)
(-0.0105087 0.408304 -8.38705e-21)
(-0.0129339 0.408511 0)
(-0.0154047 0.408761 -1.79723e-20)
(-0.0179181 0.40905 1.79406e-20)
(-0.020459 0.409369 1.91393e-20)
(-0.0229918 0.409691 -1.91034e-20)
(-0.025446 0.409955 0)
(-0.0276939 0.410036 0)
(-0.0295189 0.409688 4.47522e-20)
(-0.0305778 0.408447 -9.1387e-20)
(-0.0303683 0.405505 -2.02579e-21)
(-0.0282361 0.399539 4.87511e-20)
(-0.0234777 0.38858 -5.2665e-20)
(-0.015608 0.370064 5.30338e-20)
(-0.00481033 0.341243 0)
(0.00757006 0.300142 0)
(0.0188515 0.246904 0)
(0.0256231 0.184921 0)
(0.0252696 0.120775 0)
(0.0176363 0.0623638 0)
(0.00578288 0.0158045 -9.23267e-20)
(-0.00498803 0.0153226 9.70903e-20)
(-0.0153398 0.0596167 1.10744e-19)
(-0.0223039 0.114866 -1.65255e-19)
(-0.0230909 0.176077 5.5587e-20)
(-0.0174361 0.236427 0)
(-0.00728272 0.289746 0)
(0.00443513 0.332334 0)
(0.0151444 0.363364 0)
(0.0233402 0.384159 -5.07752e-20)
(0.0285986 0.397053 1.98765e-21)
(0.031213 0.404461 2.03728e-21)
(0.0317864 0.408375 1.99711e-21)
(0.0309471 0.410219 4.44448e-20)
(0.0292133 0.410914 0)
(0.026959 0.411015 -1.96294e-20)
(0.0244316 0.410833 7.36551e-22)
(0.0217836 0.410539 6.56816e-22)
(0.019103 0.410217 1.8333e-20)
(0.0164369 0.409911 0)
(0.0138075 0.40964 8.44907e-21)
(0.0112219 0.409412 -1.70224e-22)
(0.00867874 0.409229 -8.30398e-21)
(0.0061717 0.409092 4.04485e-21)
(0.00369182 0.409001 -6.06136e-21)
(0.00122872 0.408955 2.01366e-21)
(-0.00122872 0.408955 2.01366e-21)
(-0.00369182 0.409001 -6.06136e-21)
(-0.0061717 0.409092 4.04485e-21)
(-0.00867874 0.409229 -8.30398e-21)
(-0.0112219 0.409412 -1.70224e-22)
(-0.0138075 0.40964 8.44907e-21)
(-0.0164369 0.409911 0)
(-0.019103 0.410217 1.8333e-20)
(-0.0217836 0.410539 6.56816e-22)
(-0.0244316 0.410833 7.36551e-22)
(-0.026959 0.411015 -1.96294e-20)
(-0.0292133 0.410914 0)
(-0.0309471 0.410219 4.44448e-20)
(-0.0317864 0.408375 1.99711e-21)
(-0.031213 0.404461 2.03728e-21)
(-0.0285986 0.397053 1.98765e-21)
(-0.0233402 0.384159 -5.07752e-20)
(-0.0151444 0.363364 0)
(-0.00443513 0.332334 0)
(0.00728272 0.289746 0)
(0.0174361 0.236427 0)
(0.0230909 0.176077 5.5587e-20)
(0.0223039 0.114866 -1.65255e-19)
(0.0153398 0.0596167 1.10744e-19)
(0.00498803 0.0153226 -9.70903e-20)
(-0.00425376 0.014948 0)
(-0.0131753 0.0574266 5.71349e-20)
(-0.0193547 0.11002 -1.14179e-19)
(-0.0203036 0.16858 5.68564e-20)
(-0.0155071 0.227218 0)
(-0.0063751 0.28025 0)
(0.00461501 0.32386 0)
(0.0150698 0.356718 0)
(0.0234127 0.379567 5.06559e-20)
(0.0290338 0.39432 -5.03732e-20)
(0.0320499 0.40319 0)
(0.0329525 0.408139 0)
(0.0323263 0.410657 0)
(0.0306902 0.411758 2.02237e-20)
(0.0284401 0.412085 -2.025e-20)
(0.0258495 0.412016 0)
(0.023094 0.411767 1.80989e-20)
(0.0202791 0.411453 -1.81271e-20)
(0.0174639 0.411136 0)
(0.0146781 0.410845 0)
(0.0119334 0.410595 8.18721e-21)
(0.00923069 0.410392 -8.19853e-21)
(0.00656489 0.41024 3.99206e-21)
(0.00392724 0.410138 -3.99714e-21)
(0.0013071 0.410087 0)
(-0.0013071 0.410087 0)
(-0.00392724 0.410138 -3.99714e-21)
(-0.00656489 0.41024 3.99206e-21)
(-0.00923069 0.410392 -8.19853e-21)
(-0.0119334 0.410595 8.18721e-21)
(-0.0146781 0.410845 0)
(-0.0174639 0.411136 0)
(-0.0202791 0.411453 -1.81271e-20)
(-0.023094 0.411767 1.80989e-20)
(-0.0258495 0.412016 0)
(-0.0284401 0.412085 -2.025e-20)
(-0.0306902 0.411758 2.02237e-20)
(-0.0323263 0.410657 0)
(-0.0329525 0.408139 0)
(-0.0320499 0.40319 0)
(-0.0290338 0.39432 -5.03732e-20)
(-0.0234127 0.379567 5.06559e-20)
(-0.0150698 0.356718 0)
(-0.00461501 0.32386 0)
(0.0063751 0.28025 0)
(0.0155071 0.227218 0)
(0.0203036 0.16858 5.68564e-20)
(0.0193547 0.11002 -1.14179e-19)
(0.0131753 0.0574266 5.71349e-20)
(0.00425376 0.014948 0)
(-0.00356361 0.0146667 -5.28915e-20)
(-0.0111131 0.0557034 0)
(-0.0164298 0.106083 0)
(-0.0173262 0.162292 0)
(-0.0131547 0.219229 0)
(-0.00491507 0.271715 0)
(0.00533079 0.315961 0)
(0.0154091 0.350282 -5.29958e-20)
(0.0237426 0.374936 5.24527e-20)
(0.0295908 0.391431 4.8115e-20)
(0.0329169 0.401744 -4.79386e-20)
(0.0340999 0.407764 0)
(0.0336682 0.411009 0)
(0.0321283 0.412569 -2.00114e-20)
(0.0298881 0.413163 2.00317e-20)
(0.0272418 0.413235 0)
(0.0243856 0.413049 0)
(0.0214418 0.412755 0)
(0.0184814 0.412432 0)
(0.015542 0.412124 0)
(0.01264 0.411854 0)
(0.00977932 0.411632 0)
(0.00695588 0.411463 0)
(0.00416138 0.41135 0)
(0.00138506 0.411293 0)
(-0.00138506 0.411293 0)
(-0.00416138 0.41135 0)
(-0.00695588 0.411463 0)
(-0.00977932 0.411632 0)
(-0.01264 0.411854 0)
(-0.015542 0.412124 0)
(-0.0184814 0.412432 0)
(-0.0214418 0.412755 0)
(-0.0243856 0.413049 0)
(-0.0272418 0.413235 0)
(-0.0298881 0.413163 2.00317e-20)
(-0.0321283 0.412569 -2.00114e-20)
(-0.0336682 0.411009 0)
(-0.0340999 0.407764 0)
(-0.0329169 0.401744 -4.79386e-20)
(-0.0295908 0.391431 4.8115e-20)
(-0.0237426 0.374936 5.24527e-20)
(-0.0154091 0.350282 -5.29958e-20)
(-0.00533079 0.315961 0)
(0.00491507 0.271715 0)
(0.0131547 0.219229 0)
(0.0173262 0.162292 0)