/*--------------------------------*- C++ -*----------------------------------*\
  =========                 |
  \\      /  F ield         | OpenFOAM: The Open Source CFD Toolbox
   \\    /   O peration     | Website:  https://openfoam.org
    \\  /    A nd           | Version:  6
     \\/     M anipulation  |
\*---------------------------------------------------------------------------*/
FoamFile
{
    version     2.0;
    format      ascii;
    class       volScalarField;
    location    "0";
    object      Cx;
}
// * * * * * * * * * * * * * * * * * * * * * * * * * * * * * * * * * * * * * //

dimensions      [0 1 0 0 0 0 0];

internalField   nonuniform List<scalar> 
841
(
0.0290005
0.0546957
0.0783294
0.0998007
0.119171
0.13649
0.151979
0.165861
0.17809
0.188855
0.198266
0.20626
0.212748
0.21765
0.220893
0.222297
0.221588
0.218291
0.211915
0.20209
0.18884
0.172772
0.154547
0.134626
0.113477
0.0915157
0.0691349
0.0467773
0.0246973
0.0606735
0.0852836
0.107733
0.127973
0.146114
0.162251
0.176646
0.18956
0.20099
0.211128
0.220062
0.227715
0.233981
0.238767
0.241988
0.243456
0.242894
0.239831
0.233778
0.224364
0.211602
0.196067
0.178407
0.159111
0.138685
0.117596
0.096295
0.0752533
0.0547092
0.0938144
0.117441
0.138808
0.157921
0.174935
0.189994
0.203397
0.215447
0.226183
0.235796
0.244357
0.251772
0.25792
0.262692
0.265993
0.267627
0.267315
0.264587
0.25896
0.25006
0.237888
0.222988
0.205995
0.187426
0.167826
0.147713
0.127596
0.107976
0.0890729
0.127961
0.150593
0.170867
0.188841
0.204717
0.218685
0.231085
0.242259
0.252288
0.261365
0.269539
0.276705
0.282722
0.287468
0.290836
0.292625
0.29255
0.290146
0.284931
0.276533
0.264937
0.250659
0.234321
0.216466
0.197679
0.17853
0.159586
0.141376
0.124105
0.1627
0.184278
0.203399
0.220173
0.23485
0.247668
0.259004
0.26924
0.278501
0.28698
0.294707
0.301561
0.307386
0.312046
0.31542
0.317302
0.317403
0.315261
0.310396
0.302438
0.291357
0.277641
0.261896
0.244694
0.226659
0.208411
0.190577
0.173716
0.158015
0.197748
0.218249
0.236195
0.251749
0.265205
0.276851
0.287101
0.296379
0.304849
0.312708
0.319966
0.326486
0.332098
0.336648
0.340007
0.34196
0.342215
0.340313
0.335778
0.328238
0.317649
0.304472
0.289299
0.272728
0.255423
0.238054
0.221309
0.205772
0.191617
0.232942
0.252399
0.269201
0.283563
0.295829
0.306332
0.315525
0.323873
0.331582
0.33885
0.345668
0.351884
0.357311
0.361781
0.365154
0.367207
0.367646
0.366013
0.361836
0.354742
0.344676
0.332068
0.317495
0.301585
0.285039
0.268577
0.252946
0.23876
0.226178
0.268187
0.286625
0.302309
0.315507
0.326609
0.335994
0.344156
0.351598
0.35857
0.365272
0.371675
0.377612
0.382879
0.387295
0.390706
0.392886
0.393533
0.392194
0.3884
0.381778
0.372258
0.360244
0.346297
0.331071
0.315309
0.299778
0.285286
0.272477
0.261492
0.303411
0.320812
0.335358
0.347373
0.35729
0.36554
0.372651
0.37917
0.385387
0.391504
0.397473
0.403112
0.408201
0.412544
0.415976
0.418262
0.4191
0.418037
0.414607
0.408439
0.399448
0.388009
0.37467
0.36011
0.345113
0.330496
0.317127
0.305676
0.296273
0.338614
0.354956
0.368345
0.379155
0.387869
0.394962
0.401003
0.406579
0.412021
0.417534
0.42305
0.428372
0.433264
0.437513
0.440946
0.44332
0.444328
0.443522
0.440437
0.434703
0.426222
0.415339
0.402588
0.388677
0.374425
0.360704
0.348438
0.338328
0.330487
0.373815
0.389113
0.401359
0.410981
0.418507
0.424461
0.429448
0.434097
0.438782
0.443708
0.448787
0.453808
0.458519
0.462692
0.466142
0.46862
0.469816
0.469282
0.46656
0.461277
0.453323
0.443013
0.430867
0.41762
0.404131
0.391323
0.380177
0.371427
0.365165
0.409014
0.423294
0.434423
0.442882
0.449246
0.454085
0.458045
0.461793
0.465747
0.470111
0.47478
0.479527
0.484082
0.488205
0.491698
0.494305
0.495714
0.495479
0.493145
0.488339
0.480937
0.471226
0.459711
0.447154
0.434454
0.422584
0.412587
0.405222
0.400568
0.4442
0.457462
0.467476
0.474773
0.479976
0.483702
0.486635
0.489484
0.492706
0.49651
0.500769
0.505241
0.509642
0.513715
0.517252
0.51999
0.521612
0.521676
0.519731
0.515403
0.508554
0.499441
0.488558
0.476691
0.464781
0.45385
0.445001
0.439023
0.435978
0.479354
0.491583
0.500464
0.506582
0.510606
0.513203
0.515091
0.517022
0.519497
0.522722
0.526554
0.530735
0.534964
0.53897
0.542533
0.545384
0.547203
0.547549
0.545975
0.542107
0.535793
0.527262
0.516993
0.505799
0.494661
0.484652
0.476933
0.472324
0.470869
0.514468
0.52565
0.533385
0.538311
0.541143
0.542595
0.543426
0.544426
0.546138
0.548771
0.552161
0.556037
0.560081
0.564006
0.567582
0.570532
0.572533
0.573148
0.571931
0.568509
0.562717
0.554754
0.545085
0.534551
0.524171
0.515069
0.508467
0.50521
0.505332
0.549535
0.559668
0.566255
0.569986
0.571625
0.57193
0.571701
0.571767
0.572713
0.574752
0.577699
0.581267
0.585122
0.588964
0.59255
0.595598
0.597779
0.598659
0.597797
0.594819
0.589547
0.582149
0.573077
0.5632
0.553576
0.545379
0.53989
0.537984
0.539678
0.584551
0.593643
0.59909
0.601635
0.602087
0.601254
0.599971
0.599111
0.599301
0.600753
0.603263
0.606532
0.610207
0.613973
0.617578
0.62073
0.623099
0.624253
0.623754
0.621228
0.616482
0.609659
0.601192
0.59198
0.583119
0.575835
0.571466
0.570918
0.574191
0.619516
0.627583
0.631905
0.633279
0.632561
0.630606
0.628286
0.626516
0.625965
0.626846
0.628936
0.631921
0.635432
0.639138
0.642777
0.64605
0.648623
0.650067
0.649946
0.647888
0.643686
0.637451
0.629607
0.621075
0.612993
0.606637
0.603404
0.604229
0.609097
0.65445
0.661509
0.664725
0.664946
0.663076
0.660015
0.656676
0.654014
0.652738
0.653066
0.654754
0.657472
0.660836
0.664501
0.668191
0.671603
0.674397
0.676148
0.676424
0.674851
0.671209
0.665582
0.658376
0.650543
0.643257
0.637846
0.635765
0.63798
0.644459
0.689404
0.695461
0.697574
0.696648
0.693629
0.689467
0.685114
0.681564
0.679569
0.679349
0.680638
0.683094
0.686316
0.689943
0.693689
0.697244
0.700265
0.702328
0.703004
0.701921
0.698844
0.693828
0.687266
0.680135
0.673651
0.669188
0.668264
0.671872
0.679964
0.724431
0.729456
0.73044
0.728335
0.724139
0.718848
0.713451
0.708984
0.70624
0.705441
0.706304
0.708468
0.711518
0.715079
0.718851
0.72252
0.725737
0.728082
0.72913
0.728507
0.725965
0.721531
0.715584
0.709125
0.703412
0.699869
0.700072
0.705043
0.714717
0.759537
0.763472
0.763264
0.759923
0.754489
0.748009
0.741509
0.736064
0.732513
0.731076
0.731452
0.733265
0.736084
0.739518
0.743257
0.74698
0.750334
0.752902
0.754261
0.754038
0.751972
0.748061
0.742667
0.736822
0.73182
0.729138
0.73041
0.736686
0.747884
0.79468
0.797475
0.79603
0.791405
0.784688
0.776972
0.769322
0.762856
0.758451
0.75633
0.756173
0.75759
0.760131
0.763392
0.767052
0.770783
0.774228
0.776972
0.778597
0.778728
0.777091
0.773656
0.76877
0.763492
0.759157
0.75729
0.759586
0.767124
0.779806
0.829708
0.831365
0.828683
0.822775
0.814776
0.805826
0.797028
0.789541
0.784284
0.781482
0.780793
0.781815
0.78408
0.78717
0.790753
0.794492
0.798029
0.800952
0.802844
0.803331
0.802125
0.799166
0.79479
0.790081
0.786414
0.785365
0.788687
0.797491
0.811664
0.864288
0.864864
0.861001
0.853868
0.844643
0.834516
0.824628
0.816177
0.810126
0.806701
0.805539
0.806223
0.80827
0.811246
0.81481
0.818615
0.822302
0.82546
0.827676
0.828577
0.82786
0.825436
0.821627
0.817545
0.814603
0.81443
0.818837
0.828966
0.844689
0.897908
0.897495
0.892547
0.884282
0.873929
0.86272
0.851837
0.842519
0.83577
0.831816
0.830277
0.830719
0.832644
0.835602
0.839241
0.843209
0.847141
0.85063
0.853266
0.854676
0.854544
0.85275
0.849603
0.846243
0.844123
0.844921
0.85051
0.862058
0.879427
0.929892
0.928556
0.922588
0.913257
0.901839
0.889615
0.877801
0.86768
0.860297
0.85588
0.854029
0.854295
0.856163
0.859168
0.862947
0.867142
0.871385
0.875269
0.878391
0.880375
0.880892
0.879793
0.877374
0.874801
0.873567
0.875402
0.882235
0.895267
0.914343
0.959601
0.957325
0.950319
0.939905
0.927406
0.914148
0.901385
0.89044
0.882404
0.877505
0.875322
0.875392
0.877184
0.880218
0.88412
0.888523
0.893057
0.897319
0.900907
0.903447
0.904594
0.904171
0.90246
0.900656
0.900289
0.90314
0.911198
0.925691
0.946451
0.986649
0.983375
0.975273
0.96372
0.950083
0.935733
0.921962
0.910132
0.901381
0.895939
0.893365
0.893181
0.894838
0.897841
0.901806
0.906358
0.911125
0.915705
0.919701
0.922737
0.924455
0.92465
0.923589
0.922493
0.922934
0.926741
0.935962
0.951857
0.97424
)
;

boundaryField
{
    low
    {
        type            calculated;
        value           nonuniform List<scalar> 
29
(
0.0156789
0.0478616
0.0814826
0.116112
0.151353
0.186899
0.222562
0.258258
0.293954
0.329651
0.365348
0.401039
0.436713
0.472359
0.507966
0.543524
0.579023
0.614458
0.649848
0.685249
0.720735
0.756339
0.792013
0.82758
0.86268
0.896781
0.929224
0.959397
0.986926
)
;
    }
    up
    {
        type            calculated;
        value           nonuniform List<scalar> 
29
(
0.0138611
0.0446949
0.0799182
0.115795
0.150521
0.184935
0.220331
0.256497
0.292117
0.327158
0.362668
0.398911
0.435162
0.470889
0.506182
0.541361
0.576712
0.612465
0.648686
0.685053
0.720653
0.754631
0.787329
0.819952
0.853765
0.889336
0.925126
0.958113
0.98676
)
;
    }
    left
    {
        type            calculated;
        value           nonuniform List<scalar> 
29
(
0.0136156
0.0398949
0.0641589
0.0862818
0.106301
0.124243
0.140313
0.15471
0.167371
0.178486
0.188173
0.196377
0.203015
0.208018
0.211315
0.21273
0.211991
0.208623
0.202134
0.192152
0.178706
0.162416
0.143952
0.123767
0.102307
0.0799646
0.0571022
0.0341451
0.0113526
)
;
    }
    right
    {
        type            calculated;
        value           nonuniform List<scalar> 
29
(
0.99952
0.995731
0.987062
0.974916
0.960685
0.945769
0.931482
0.919207
0.910093
0.904366
0.90158
0.901249
0.902818
0.905786
0.909761
0.914369
0.919232
0.923952
0.928131
0.931396
0.933382
0.933871
0.933118
0.932356
0.933175
0.937428
0.947196
0.963753
0.986914
)
;
    }
    frontAndBackPlanes
    {
        type            empty;
    }
}


// ************************************************************************* //
