/*--------------------------------*- C++ -*----------------------------------*\
  =========                 |
  \\      /  F ield         | OpenFOAM: The Open Source CFD Toolbox
   \\    /   O peration     | Website:  https://openfoam.org
    \\  /    A nd           | Version:  6
     \\/     M anipulation  |
\*---------------------------------------------------------------------------*/
FoamFile
{
    version     2.0;
    format      ascii;
    class       volScalarField;
    location    "0";
    object      Cy;
}
// * * * * * * * * * * * * * * * * * * * * * * * * * * * * * * * * * * * * * //

dimensions      [0 1 0 0 0 0 0];

internalField   nonuniform List<scalar> 
841
(
0.0220837
0.0503096
0.0802564
0.111787
0.144671
0.178718
0.213691
0.249397
0.285769
0.322651
0.359933
0.397564
0.435494
0.473667
0.512016
0.550474
0.588944
0.627266
0.665179
0.70233
0.738393
0.773297
0.807124
0.839974
0.87202
0.903463
0.934512
0.965439
0.996405
0.0376553
0.066254
0.0964842
0.128207
0.161206
0.195317
0.23033
0.266077
0.3025
0.339441
0.37678
0.414461
0.452428
0.490628
0.528995
0.567464
0.605944
0.644281
0.682228
0.719442
0.755609
0.79066
0.824673
0.857745
0.890041
0.921747
0.953033
0.984103
1.01505
0.0495962
0.0782687
0.108484
0.140099
0.172916
0.206793
0.24155
0.277041
0.313219
0.349923
0.387024
0.424458
0.462168
0.500099
0.538187
0.576372
0.614565
0.652621
0.690304
0.727283
0.763258
0.798159
0.83206
0.865056
0.897306
0.928978
0.960203
0.991121
1.02176
0.0580367
0.0865043
0.116425
0.147655
0.180011
0.213375
0.247597
0.282555
0.31821
0.3544
0.390985
0.427895
0.46507
0.502454
0.539986
0.577608
0.615237
0.652735
0.689875
0.726343
0.761847
0.79632
0.829831
0.862472
0.894395
0.925752
0.956636
0.987118
1.01716
0.0634284
0.091583
0.121102
0.151839
0.183625
0.216369
0.249947
0.284263
0.319287
0.354854
0.390815
0.427093
0.463625
0.500354
0.537221
0.574173
0.611128
0.64796
0.68445
0.720298
0.755224
0.78916
0.822172
0.85435
0.885837
0.916768
0.947198
0.977132
1.00647
0.0664547
0.0943439
0.123508
0.153799
0.185064
0.217234
0.250216
0.283938
0.318379
0.35337
0.388754
0.424447
0.460382
0.496503
0.532753
0.56908
0.605411
0.641623
0.677511
0.712786
0.747181
0.780628
0.813188
0.844948
0.876045
0.906595
0.936617
0.966048
0.994725
0.067845
0.0956651
0.124672
0.154712
0.185651
0.217445
0.250028
0.283351
0.317405
0.352016
0.387019
0.422323
0.457858
0.493567
0.529396
0.565296
0.601197
0.636987
0.672469
0.707368
0.741428
0.774582
0.806887
0.838425
0.869326
0.899691
0.929498
0.95862
0.98683
0.0682094
0.0962845
0.125457
0.155572
0.186509
0.21825
0.250756
0.284006
0.317996
0.352551
0.387498
0.422737
0.458196
0.493818
0.52955
0.565347
0.601144
0.636835
0.672236
0.707084
0.741133
0.774318
0.806692
0.838331
0.86936
0.899863
0.929778
0.958914
0.986978
0.0681139
0.0967208
0.126336
0.156802
0.188016
0.219981
0.252689
0.286142
0.320346
0.355124
0.390291
0.425743
0.461404
0.497216
0.533129
0.5691
0.60507
0.64094
0.676537
0.71161
0.745925
0.77942
0.812139
0.844158
0.875595
0.906514
0.936818
0.966246
0.994445
0.0680843
0.0973146
0.127465
0.158374
0.189955
0.222237
0.255239
0.288987
0.323498
0.35859
0.394071
0.429828
0.465782
0.501876
0.538061
0.574298
0.610532
0.646672
0.682555
0.717945
0.752618
0.786513
0.81967
0.852162
0.884098
0.915529
0.946315
0.976132
1.00456
0.0684539
0.098219
0.128815
0.160079
0.19194
0.22445
0.257658
0.291615
0.326346
0.361665
0.397371
0.433345
0.469504
0.505792
0.542161
0.578575
0.614985
0.651306
0.687387
0.723004
0.757947
0.792153
0.825661
0.858537
0.890887
0.922741
0.953925
0.984045
1.01262
0.0693089
0.099396
0.130226
0.161632
0.19356
0.226087
0.25929
0.293243
0.327981
0.363315
0.399035
0.435015
0.471168
0.507437
0.543779
0.580158
0.616532
0.652822
0.688888
0.724521
0.759521
0.793827
0.827472
0.860522
0.893073
0.92514
0.956509
0.986722
1.01523
0.0706748
0.100862
0.131702
0.163028
0.194801
0.227123
0.260097
0.293824
0.328347
0.363475
0.398986
0.434748
0.470673
0.506702
0.542793
0.578916
0.615031
0.651069
0.686898
0.722325
0.757159
0.791343
0.824903
0.857903
0.890432
0.922489
0.953819
0.983901
1.01212
0.0725844
0.102713
0.133408
0.164495
0.195955
0.227913
0.2605
0.293844
0.327994
0.362756
0.3979
0.433288
0.468826
0.504457
0.54014
0.575848
0.611547
0.647174
0.682609
0.717671
0.752183
0.786085
0.819404
0.852195
0.884545
0.916432
0.947565
0.977355
1.00513
0.0750698
0.105051
0.13551
0.16627
0.197327
0.228831
0.260942
0.293811
0.327498
0.361805
0.396493
0.431415
0.466476
0.501619
0.536805
0.572008
0.607201
0.642327
0.677279
0.711888
0.745986
0.779519
0.812504
0.844998
0.877077
0.908705
0.939551
0.968959
0.996192
0.0781526
0.107951
0.138136
0.168533
0.199151
0.230165
0.261763
0.294121
0.327308
0.361123
0.395317
0.429738
0.464286
0.498904
0.533555
0.568218
0.602868
0.637458
0.671889
0.706007
0.739657
0.772782
0.805399
0.837559
0.869331
0.900662
0.931184
0.960174
0.98683
0.0818443
0.111461
0.141378
0.171413
0.201594
0.23212
0.263207
0.295057
0.327746
0.36107
0.394773
0.428694
0.462731
0.496827
0.530946
0.56507
0.599179
0.633235
0.667148
0.700778
0.733981
0.766703
0.798953
0.83078
0.862248
0.893285
0.923484
0.952058
0.97814
0.0861204
0.115601
0.145292
0.17501
0.204799
0.234881
0.265501
0.296886
0.32912
0.361998
0.395253
0.428718
0.462288
0.495905
0.529535
0.563164
0.596778
0.630343
0.663782
0.696969
0.729769
0.762131
0.794059
0.825597
0.856804
0.887591
0.917512
0.945713
0.971264
0.0908089
0.120254
0.149819
0.179321
0.208817
0.238555
0.268808
0.299827
0.331706
0.364237
0.397143
0.430252
0.463454
0.496691
0.529933
0.563167
0.596384
0.629558
0.662624
0.695467
0.727965
0.760066
0.791771
0.823121
0.854167
0.884803
0.914545
0.942473
0.967592
0.0954862
0.125067
0.15468
0.184136
0.213511
0.243076
0.273134
0.303958
0.335653
0.368006
0.400735
0.433658
0.466663
0.499692
0.532716
0.565726
0.598718
0.631673
0.664537
0.697207
0.729575
0.761587
0.793242
0.824574
0.85563
0.886286
0.916019
0.943844
0.9687
0.0995377
0.129497
0.159399
0.189053
0.218549
0.248184
0.278287
0.309157
0.340909
0.373327
0.406119
0.439097
0.472147
0.50521
0.538259
0.571287
0.604296
0.637274
0.670177
0.702918
0.735397
0.767563
0.799409
0.830965
0.862272
0.893189
0.923155
0.951116
0.975949
0.102335
0.132921
0.163361
0.193461
0.223327
0.25328
0.283678
0.314844
0.346902
0.379634
0.412739
0.446023
0.479367
0.512713
0.546035
0.57933
0.612605
0.645856
0.679049
0.712109
0.744948
0.777517
0.809802
0.841832
0.87364
0.905067
0.935514
0.963862
0.98892
0.103111
0.134504
0.165661
0.196387
0.226803
0.257256
0.288129
0.319773
0.352319
0.385547
0.419147
0.452917
0.486737
0.520546
0.554323
0.588066
0.621788
0.655492
0.689154
0.722714
0.756094
0.789245
0.822151
0.854836
0.887325
0.919444
0.950555
0.979472
1.00494
0.101007
0.133311
0.165292
0.19675
0.227823
0.258881
0.290337
0.322566
0.355708
0.389539
0.423742
0.458105
0.492507
0.526887
0.561224
0.595523
0.629797
0.66406
0.698298
0.732464
0.766491
0.800332
0.833965
0.86741
0.900688
0.933606
0.965488
0.995083
1.02107
0.0952984
0.128541
0.161371
0.193586
0.225343
0.257033
0.2891
0.321941
0.355707
0.39017
0.425002
0.459987
0.494998
0.529975
0.5649
0.59978
0.634634
0.669482
0.704321
0.739119
0.773819
0.808376
0.842762
0.876995
0.911089
0.944833
0.977512
1.00781
1.03435
0.0854328
0.119522
0.15311
0.185993
0.218341
0.250574
0.283162
0.316527
0.350829
0.385834
0.421207
0.456723
0.492254
0.527739
0.563162
0.598532
0.633875
0.669218
0.704569
0.739907
0.77519
0.810372
0.845422
0.880352
0.915171
0.94965
0.983038
1.01395
1.04095
0.0710871
0.105811
0.139945
0.173282
0.206011
0.238574
0.271472
0.305152
0.339779
0.375117
0.41082
0.446658
0.482498
0.51828
0.553989
0.58964
0.625261
0.660887
0.696537
0.732206
0.76786
0.803455
0.838957
0.874374
0.909707
0.94471
0.978592
1.00991
1.03715
0.052386
0.0875127
0.121961
0.155521
0.188397
0.221058
0.254034
0.287797
0.322521
0.357961
0.393763
0.42969
0.465608
0.501455
0.537221
0.57292
0.608588
0.644266
0.679985
0.715751
0.751545
0.787324
0.823046
0.858718
0.894332
0.929626
0.963771
0.995255
1.02251
0.0299208
0.0653141
0.0999392
0.133582
0.166464
0.199082
0.231999
0.265714
0.3004
0.335806
0.37157
0.40745
0.443308
0.479084
0.514767
0.550378
0.585956
0.621549
0.6572
0.692928
0.728725
0.76455
0.800356
0.836145
0.871904
0.907353
0.941623
0.973139
1.00027
)
;

boundaryField
{
    low
    {
        type            calculated;
        value           nonuniform List<scalar> 
29
(
0.00853065
0.0238602
0.0357189
0.0442324
0.0497578
0.0528977
0.0543107
0.0545449
0.0541745
0.0538126
0.0538843
0.0545462
0.0558358
0.0577514
0.0602891
0.0634428
0.0672042
0.0715278
0.0762143
0.0808061
0.0846559
0.0871294
0.087491
0.0849155
0.0787171
0.0683996
0.0537051
0.0347749
0.012152
)
;
    }
    up
    {
        type            calculated;
        value           nonuniform List<scalar> 
29
(
1.01186
1.03042
1.03689
1.03194
1.02084
1.00873
1.00056
1.0006
1.0081
1.01828
1.02636
1.02889
1.02558
1.01832
1.00907
0.999371
0.99035
0.983165
0.979236
0.980176
0.98738
1.00043
1.01661
1.03294
1.04644
1.05323
1.04953
1.03488
1.01255
)
;
    }
    left
    {
        type            calculated;
        value           nonuniform List<scalar> 
29
(
0.013551
0.0415466
0.0713028
0.102686
0.135455
0.169407
0.204293
0.239901
0.276162
0.312932
0.350102
0.387628
0.42546
0.463544
0.501811
0.540192
0.578586
0.616831
0.65466
0.691712
0.727659
0.762429
0.796102
0.828781
0.860641
0.891894
0.922769
0.953576
0.984504
)
;
    }
    right
    {
        type            calculated;
        value           nonuniform List<scalar> 
29
(
0.0179133
0.0534381
0.0881492
0.121833
0.154718
0.187306
0.220167
0.253808
0.288419
0.323761
0.359466
0.395287
0.431083
0.466794
0.50241
0.537951
0.573459
0.608986
0.644579
0.680265
0.716042
0.75187
0.787698
0.823527
0.85934
0.894849
0.929171
0.960696
0.987758
)
;
    }
    frontAndBackPlanes
    {
        type            empty;
    }
}


// ************************************************************************* //
