/*--------------------------------*- C++ -*----------------------------------*\
  =========                 |
  \\      /  F ield         | OpenFOAM: The Open Source CFD Toolbox
   \\    /   O peration     | Website:  https://openfoam.org
    \\  /    A nd           | Version:  6
     \\/     M anipulation  |
\*---------------------------------------------------------------------------*/
FoamFile
{
    version     2.0;
    format      ascii;
    class       volScalarField;
    location    "0";
    object      Cz;
}
// * * * * * * * * * * * * * * * * * * * * * * * * * * * * * * * * * * * * * //

dimensions      [0 1 0 0 0 0 0];

internalField   nonuniform List<scalar> 
841
(
0
3.58998e-19
-3.40138e-19
-6.24217e-19
1.25303e-20
0
-1.24579e-20
0
0
0
0
0
5.09457e-19
0
0
0
-4.27017e-19
2.39885e-20
3.47299e-19
0
0
0
2.92706e-19
5.44397e-19
0
2.57241e-19
7.50051e-19
0
0
0
-8.092e-19
-4.96953e-19
-2.42582e-20
0
-2.34592e-19
-2.08494e-19
6.67058e-19
0
6.77623e-19
-4.20644e-19
-8.02052e-19
-3.78074e-19
-4.15769e-19
2.40909e-20
3.90723e-19
0
3.38225e-19
0
9.14274e-19
0
0
0
0
0
3.01538e-19
0
4.8195e-19
0
0
0
0
2.42868e-20
-7.47081e-19
-1.11108e-18
3.76543e-19
-7.24322e-19
-3.71395e-19
1.08647e-18
2.41886e-20
-3.63372e-19
3.82255e-19
0
-6.93955e-19
0
0
3.54143e-19
0
-2.40671e-20
-3.27559e-19
0
-6.14105e-19
0
0
0
3.44925e-19
-9.13386e-19
1.16981e-18
1.15548e-18
-7.46474e-19
-7.41764e-19
0
3.56995e-19
0
6.84671e-19
-3.54775e-19
3.78887e-19
-6.86844e-19
0
3.54543e-19
-3.52961e-19
7.26805e-19
6.74842e-19
3.47965e-19
6.9467e-19
0
0
-3.61964e-19
2.40868e-20
7.45269e-19
3.95297e-19
-8.05628e-19
8.11545e-19
4.03082e-19
-2.39337e-20
3.82819e-19
7.20028e-19
3.49629e-19
3.60443e-19
0
-6.93409e-19
0
-1.03513e-18
0
-6.74345e-19
-3.50763e-19
0
0
-6.86573e-19
2.42051e-20
2.41887e-20
0
2.41606e-20
1.07863e-18
-3.6432e-19
3.73246e-19
-7.99216e-19
-4.0577e-19
8.44825e-19
-4.86821e-19
-2.61133e-19
0
4.51445e-19
6.49872e-19
-2.38847e-20
8.25359e-19
3.44945e-19
-3.48053e-19
0
0
0
0
-3.45924e-19
0
0
-1.05781e-18
7.08689e-19
-3.55702e-19
-3.32331e-19
-1.07127e-18
-3.33508e-19
0
0
0
0
0
-2.40623e-20
1.252e-18
8.38206e-19
-2.55914e-19
2.33009e-19
2.30294e-19
4.26043e-19
-4.3558e-19
-4.01598e-19
9.90402e-19
0
6.53006e-19
-6.77914e-19
-3.40999e-19
0
6.68962e-19
-3.48926e-19
3.50434e-19
3.76965e-19
0
0
3.79158e-19
-2.41294e-20
3.29468e-19
0
0
-3.52057e-19
-2.4045e-20
0
3.67291e-19
0
3.7777e-19
7.34829e-19
0
0
0
0
-1.0585e-18
-3.25524e-19
2.42245e-20
-3.37037e-19
0
0
-3.46929e-19
-2.42582e-20
-6.84227e-19
2.42012e-20
0
3.61417e-19
-7.01188e-19
-2.41013e-20
0
-3.58941e-19
0
0
-3.47792e-19
-2.39947e-20
3.41897e-19
-3.40514e-19
0
0
-6.66597e-19
0
0
-9.87479e-19
-2.38748e-20
0
6.36184e-19
-6.38479e-19
-3.09988e-19
2.42452e-20
0
-3.48551e-19
-3.78078e-19
3.5768e-19
0
3.40918e-19
0
3.94411e-19
2.40843e-20
7.15649e-19
0
0
0
7.04852e-19
6.91996e-19
0
6.45984e-19
6.35632e-19
0
6.1684e-19
0
0
1.19765e-18
0
0
9.14361e-19
-6.53024e-19
0
-2.42423e-20
0
0
2.42357e-20
-3.78787e-19
3.3354e-19
0
-3.65349e-19
0
0
3.67868e-19
0
0
-7.14097e-19
3.26849e-19
3.44276e-19
3.38117e-19
3.32595e-19
-3.51029e-19
6.91889e-19
0
0
0
-1.19383e-18
0
0
0
3.22011e-19
-6.2611e-19
0
-9.8199e-19
0
0
-3.47338e-19
-3.49595e-19
-2.417e-20
3.79664e-19
0
-3.57674e-19
3.33006e-19
0
0
0
-3.43598e-19
0
0
3.56236e-19
3.28818e-19
0
0
0
3.14209e-19
0
0
3.26406e-19
-2.95453e-19
-3.43939e-19
-2.98343e-19
2.42856e-20
0
-9.87516e-19
0
1.03139e-18
-3.45273e-19
0
3.4967e-19
3.02715e-19
0
0
1.02377e-18
3.47213e-19
1.01012e-18
3.42362e-19
0
3.40681e-19
-3.6539e-19
2.39742e-20
0
9.91022e-19
-2.39198e-20
0
0
2.38732e-20
3.58127e-19
2.84235e-19
0
6.22529e-19
-6.33418e-19
6.45294e-19
-3.39701e-19
0
0
2.42632e-20
0
2.42041e-20
0
0
-3.53085e-19
0
2.41047e-20
3.25408e-19
-1.02226e-18
0
0
-7.11807e-19
-6.93318e-19
-3.60574e-19
0
0
-6.70628e-19
3.6521e-19
9.95433e-19
0
-6.0935e-19
0
-3.01932e-19
0
6.78248e-19
-1.00967e-18
-2.43498e-20
-3.5187e-19
0
-3.55417e-19
0
3.5864e-19
7.42667e-19
1.05353e-18
4.82805e-20
2.41241e-20
-7.1405e-19
-3.33135e-19
-7.42407e-19
0
7.14324e-19
-2.40229e-20
0
7.76678e-19
-1.08895e-18
0
7.06576e-19
-2.38674e-20
-6.83747e-19
-1.20573e-20
6.27312e-19
-6.35494e-19
-3.36766e-19
-3.44125e-19
-2.43716e-20
0
0
0
1.0604e-18
-3.63493e-19
-3.89204e-19
0
0
-2.41498e-20
0
3.63535e-19
-3.63792e-19
3.65842e-19
2.4061e-20
2.40437e-20
0
0
-2.39947e-20
0
3.67433e-19
0
-3.5371e-19
2.38713e-20
9.39728e-19
6.33998e-19
-6.42975e-19
0
0
-3.555e-19
0
-3.87793e-19
-2.43038e-20
-3.67366e-19
-2.42408e-20
3.71034e-19
7.43426e-19
-2.4171e-20
2.41523e-20
0
3.6868e-19
-3.68437e-19
-7.15609e-19
3.735e-19
-3.54677e-19
4.07153e-19
3.6235e-19
0
0
0
0
3.54436e-19
0
-3.20387e-19
6.158e-19
0
3.44815e-19
0
0
0
0
0
0
-1.07535e-18
3.76352e-19
2.41863e-20
-2.41666e-20
-3.51636e-19
0
-2.41156e-20
3.71155e-19
-2.40802e-20
2.40606e-20
0
7.59054e-19
3.81361e-19
0
4.19581e-19
3.61556e-19
-3.77618e-19
0
0
-1.20352e-20
-1.00275e-18
3.63568e-19
-2.43244e-20
-3.55859e-19
-3.62722e-19
-3.68189e-19
-7.66252e-19
3.72825e-19
4.0029e-19
2.42216e-20
7.61658e-19
0
0
-2.41368e-20
-2.4121e-20
0
0
-3.70767e-19
-1.0874e-18
0
-3.71701e-19
3.71497e-19
-7.35636e-19
-3.61166e-19
0
-6.72662e-19
0
0
0
-6.44184e-19
3.63927e-19
0
-3.5666e-19
-2.43156e-20
2.43076e-20
-3.71926e-19
3.74388e-19
0
-3.81905e-19
0
3.85956e-19
7.96043e-19
2.41174e-20
-3.81812e-19
0
-3.73942e-19
3.69963e-19
0
2.40173e-20
0
3.83065e-19
0
0
-2.39255e-20
-6.88637e-19
2.38906e-20
7.85895e-19
-1.19712e-20
0
2.42302e-20
2.4252e-20
3.55522e-19
3.62497e-19
0
0
2.42126e-20
0
3.61106e-19
1.14464e-18
0
-8.1001e-19
0
-3.89311e-19
7.69854e-19
0
3.72812e-19
0
-3.60423e-19
3.54478e-19
-7.22411e-19
0
0
-9.94585e-19
6.71219e-19
7.18517e-19
3.88914e-19
0
-3.2508e-19
0
-1.00698e-18
0
0
-7.09453e-19
-2.41932e-20
3.7632e-19
2.41484e-20
0
-3.98156e-19
-2.40927e-20
0
0
-4.04876e-19
1.22537e-18
-3.69485e-19
0
-2.39816e-20
3.65288e-19
3.79737e-19
3.71837e-19
0
0
-6.691e-19
7.07648e-19
0
0
0
-2.41483e-20
6.558e-19
1.02019e-18
-3.50963e-19
0
0
2.41615e-20
0
3.6204e-19
0
2.40884e-20
0
4.18067e-19
-1.21447e-18
0
0
2.39975e-20
-7.7653e-19
-4.36442e-19
3.75909e-19
-3.63793e-19
0
3.49657e-19
1.37385e-18
-6.97877e-19
3.92073e-19
-6.7915e-19
0
5.72338e-19
0
0
-2.41659e-20
3.49481e-19
-2.4171e-20
-2.41634e-20
0
0
-3.58543e-19
0
-8.27416e-19
0
0
0
4.20959e-19
0
0
-4.27071e-19
3.91496e-19
7.57083e-19
-3.65849e-19
0
3.51277e-19
2.38833e-20
-2.38737e-20
-4.0228e-19
-9.69293e-19
0
-8.06606e-19
6.55226e-19
3.44599e-19
-1.01374e-18
0
7.23639e-19
-3.42799e-19
0
3.70929e-19
0
2.40824e-20
0
-7.95249e-19
7.81972e-19
2.40166e-20
-3.83449e-19
0
4.79311e-20
7.61454e-19
0
0
3.35329e-19
0
0
-1.35319e-18
2.38549e-20
3.66329e-19
-2.38545e-20
0
5.4415e-19
0
0
0
2.41939e-20
-2.41905e-20
0
0
0
0
-3.73632e-19
0
-7.60358e-19
-4.06712e-19
4.07984e-19
-3.83716e-19
0
2.39502e-20
2.39279e-20
0
2.38852e-20
3.45252e-19
-3.36743e-19
6.61616e-19
-6.55006e-19
-6.42033e-19
0
0
2.66654e-19
2.74325e-19
0
0
-1.08588e-18
-7.8503e-19
0
2.42328e-20
4.2051e-19
0
1.10617e-18
0
-3.70178e-19
0
-2.40195e-20
0
3.63827e-19
0
7.38726e-19
7.0615e-19
0
2.38691e-20
3.12834e-19
-6.60074e-19
6.67672e-19
0
0
-9.20439e-19
3.15163e-19
-3.87433e-19
0
1.00696e-18
0
1.27384e-18
0
5.06887e-19
0
-6.76292e-19
0
0
-4.22883e-19
-2.4101e-20
3.82537e-19
-1.13142e-18
-3.72586e-19
2.39937e-20
3.8921e-19
3.62541e-19
-3.36487e-19
-3.58861e-19
-3.34017e-19
-1.40183e-18
0
-6.79798e-19
6.71831e-19
0
-8.33691e-19
0
0
6.09565e-19
0
0
0
-6.27482e-19
0
0
-3.33498e-19
0
-2.34473e-19
4.64884e-19
4.44758e-19
-2.41178e-20
2.40807e-20
-4.12792e-19
0
0
0
0
0
0
-2.38223e-20
1.21466e-18
4.75669e-20
-3.40681e-19
-4.75133e-20
-8.68811e-19
0
0
0
0
-2.9483e-19
0
-2.66514e-19
7.82426e-19
5.29115e-19
-2.48384e-20
-1.12912e-18
3.49691e-19
-8.41896e-19
0
0
-4.63517e-19
-2.25084e-19
0
-2.89847e-19
0
2.42598e-19
0
0
-4.68133e-19
-5.17584e-19
7.04946e-19
-8.08301e-19
-4.74422e-20
0
0
0
)
;

boundaryField
{
    low
    {
        type            calculated;
        value           uniform 0;
    }
    up
    {
        type            calculated;
        value           uniform 0;
    }
    left
    {
        type            calculated;
        value           uniform 0;
    }
    right
    {
        type            calculated;
        value           uniform 0;
    }
    frontAndBackPlanes
    {
        type            empty;
    }
}


// ************************************************************************* //
