/*--------------------------------*- C++ -*----------------------------------*\
  =========                 |
  \\      /  F ield         | OpenFOAM: The Open Source CFD Toolbox
   \\    /   O peration     | Website:  https://openfoam.org
    \\  /    A nd           | Version:  6
     \\/     M anipulation  |
\*---------------------------------------------------------------------------*/
FoamFile
{
    version     2.0;
    format      ascii;
    class       volScalarField;
    location    "0";
    object      Cx;
}
// * * * * * * * * * * * * * * * * * * * * * * * * * * * * * * * * * * * * * //

dimensions      [0 1 0 0 0 0 0];

internalField   nonuniform List<scalar> 
2500
(
-0.487159
-0.467275
-0.447391
-0.427507
-0.407623
-0.387739
-0.367855
-0.347971
-0.328087
-0.308203
-0.288319
-0.268434
-0.24855
-0.228666
-0.208782
-0.188898
-0.169014
-0.14913
-0.129246
-0.109362
-0.0894782
-0.0695941
-0.0497101
-0.0298261
-0.00994202
0.00994202
0.0298261
0.0497101
0.0695941
0.0894782
0.109362
0.129246
0.14913
0.169014
0.188898
0.208782
0.228666
0.24855
0.268434
0.288319
0.308203
0.328087
0.347971
0.367855
0.387739
0.407623
0.427507
0.447391
0.467275
0.487159
-0.481472
-0.461821
-0.442169
-0.422517
-0.402865
-0.383213
-0.363561
-0.343909
-0.324257
-0.304605
-0.284953
-0.265301
-0.245649
-0.225997
-0.206345
-0.186693
-0.167041
-0.14739
-0.127738
-0.108086
-0.0884337
-0.0687818
-0.0491298
-0.0294779
-0.00982597
0.00982597
0.0294779
0.0491298
0.0687818
0.0884337
0.108086
0.127738
0.14739
0.167041
0.186693
0.206345
0.225997
0.245649
0.265301
0.284953
0.304605
0.324257
0.343909
0.363561
0.383213
0.402865
0.422517
0.442169
0.461821
0.481472
-0.475807
-0.456386
-0.436965
-0.417545
-0.398124
-0.378703
-0.359283
-0.339862
-0.320441
-0.30102
-0.2816
-0.262179
-0.242758
-0.223338
-0.203917
-0.184496
-0.165076
-0.145655
-0.126234
-0.106814
-0.087393
-0.0679724
-0.0485517
-0.029131
-0.00971034
0.00971034
0.029131
0.0485517
0.0679724
0.087393
0.106814
0.126234
0.145655
0.165076
0.184496
0.203917
0.223338
0.242758
0.262179
0.2816
0.30102
0.320441
0.339862
0.359283
0.378703
0.398124
0.417545
0.436965
0.456386
0.475807
-0.470175
-0.450985
-0.431794
-0.412603
-0.393412
-0.374221
-0.35503
-0.33584
-0.316649
-0.297458
-0.278267
-0.259076
-0.239885
-0.220695
-0.201504
-0.182313
-0.163122
-0.143931
-0.12474
-0.10555
-0.0863587
-0.0671679
-0.0479771
-0.0287862
-0.00959542
0.00959542
0.0287862
0.0479771
0.0671679
0.0863587
0.10555
0.12474
0.143931
0.163122
0.182313
0.201504
0.220695
0.239885
0.259076
0.278267
0.297458
0.316649
0.33584
0.35503
0.374221
0.393412
0.412603
0.431794
0.450985
0.470175
-0.464593
-0.44563
-0.426667
-0.407704
-0.388741
-0.369778
-0.350815
-0.331852
-0.312889
-0.293926
-0.274963
-0.256
-0.237037
-0.218074
-0.199111
-0.180148
-0.161185
-0.142222
-0.123259
-0.104296
-0.0853335
-0.0663705
-0.0474075
-0.0284445
-0.0094815
0.0094815
0.0284445
0.0474075
0.0663705
0.0853335
0.104296
0.123259
0.142222
0.161185
0.180148
0.199111
0.218074
0.237037
0.256
0.274963
0.293926
0.312889
0.331852
0.350815
0.369778
0.388741
0.407704
0.426667
0.44563
0.464593
-0.459075
-0.440338
-0.4216
-0.402862
-0.384124
-0.365387
-0.346649
-0.327911
-0.309173
-0.290436
-0.271698
-0.25296
-0.234222
-0.215484
-0.196747
-0.178009
-0.159271
-0.140533
-0.121796
-0.103058
-0.08432
-0.0655822
-0.0468444
-0.0281067
-0.00936889
0.00936889
0.0281067
0.0468444
0.0655822
0.08432
0.103058
0.121796
0.140533
0.159271
0.178009
0.196747
0.215484
0.234222
0.25296
0.271698
0.290436
0.309173
0.327911
0.346649
0.365387
0.384124
0.402862
0.4216
0.440338
0.459075
-0.453637
-0.435121
-0.416605
-0.39809
-0.379574
-0.361058
-0.342542
-0.324026
-0.305511
-0.286995
-0.268479
-0.249963
-0.231447
-0.212932
-0.194416
-0.1759
-0.157384
-0.138868
-0.120353
-0.101837
-0.0833211
-0.0648053
-0.0462895
-0.0277737
-0.0092579
0.0092579
0.0277737
0.0462895
0.0648053
0.0833211
0.101837
0.120353
0.138868
0.157384
0.1759
0.194416
0.212932
0.231447
0.249963
0.268479
0.286995
0.305511
0.324026
0.342542
0.361058
0.379574
0.39809
0.416605
0.435121
0.453637
-0.448294
-0.429996
-0.411699
-0.393401
-0.375103
-0.356806
-0.338508
-0.32021
-0.301912
-0.283615
-0.265317
-0.247019
-0.228722
-0.210424
-0.192126
-0.173828
-0.155531
-0.137233
-0.118935
-0.100637
-0.0823398
-0.064042
-0.0457443
-0.0274466
-0.00914886
0.00914886
0.0274466
0.0457443
0.064042
0.0823398
0.100637
0.118935
0.137233
0.155531
0.173828
0.192126
0.210424
0.228722
0.247019
0.265317
0.283615
0.301912
0.32021
0.338508
0.356806
0.375103
0.393401
0.411699
0.429996
0.448294
-0.443064
-0.42498
-0.406895
-0.388811
-0.370727
-0.352643
-0.334558
-0.316474
-0.29839
-0.280306
-0.262221
-0.244137
-0.226053
-0.207969
-0.189885
-0.1718
-0.153716
-0.135632
-0.117548
-0.0994633
-0.0813791
-0.0632948
-0.0452106
-0.0271264
-0.00904212
0.00904212
0.0271264
0.0452106
0.0632948
0.0813791
0.0994633
0.117548
0.135632
0.153716
0.1718
0.189885
0.207969
0.226053
0.244137
0.262221
0.280306
0.29839
0.316474
0.334558
0.352643
0.370727
0.388811
0.406895
0.42498
0.443064
-0.437964
-0.420088
-0.402212
-0.384336
-0.36646
-0.348584
-0.330707
-0.312831
-0.294955
-0.277079
-0.259203
-0.241327
-0.223451
-0.205575
-0.187699
-0.169823
-0.151947
-0.134071
-0.116195
-0.0983184
-0.0804424
-0.0625663
-0.0446902
-0.0268141
-0.00893804
0.00893804
0.0268141
0.0446902
0.0625663
0.0804424
0.0983184
0.116195
0.134071
0.151947
0.169823
0.187699
0.205575
0.223451
0.241327
0.259203
0.277079
0.294955
0.312831
0.330707
0.348584
0.36646
0.384336
0.402212
0.420088
0.437964
-0.433013
-0.415339
-0.397665
-0.379991
-0.362317
-0.344643
-0.326969
-0.309295
-0.291621
-0.273947
-0.256273
-0.238599
-0.220925
-0.203251
-0.185577
-0.167903
-0.150229
-0.132555
-0.114881
-0.097207
-0.079533
-0.061859
-0.044185
-0.026511
-0.008837
0.008837
0.026511
0.044185
0.061859
0.079533
0.097207
0.114881
0.132555
0.150229
0.167903
0.185577
0.203251
0.220925
0.238599
0.256273
0.273947
0.291621
0.309295
0.326969
0.344643
0.362317
0.379991
0.397665
0.415339
0.433013
-0.428232
-0.410753
-0.393274
-0.375795
-0.358316
-0.340837
-0.323359
-0.30588
-0.288401
-0.270922
-0.253443
-0.235964
-0.218486
-0.201007
-0.183528
-0.166049
-0.14857
-0.131091
-0.113612
-0.0961336
-0.0786548
-0.0611759
-0.0436971
-0.0262183
-0.00873942
0.00873942
0.0262183
0.0436971
0.0611759
0.0786548
0.0961336
0.113612
0.131091
0.14857
0.166049
0.183528
0.201007
0.218486
0.235964
0.253443
0.270922
0.288401
0.30588
0.323359
0.340837
0.358316
0.375795
0.393274
0.410753
0.428232
-0.42364
-0.406349
-0.389057
-0.371766
-0.354475
-0.337183
-0.319892
-0.3026
-0.285309
-0.268017
-0.250726
-0.233434
-0.216143
-0.198852
-0.18156
-0.164269
-0.146977
-0.129686
-0.112394
-0.0951029
-0.0778115
-0.06052
-0.0432286
-0.0259372
-0.00864572
0.00864572
0.0259372
0.0432286
0.06052
0.0778115
0.0951029
0.112394
0.129686
0.146977
0.164269
0.18156
0.198852
0.216143
0.233434
0.250726
0.268017
0.285309
0.3026
0.319892
0.337183
0.354475
0.371766
0.389057
0.406349
0.42364
-0.419262
-0.402149
-0.385036
-0.367924
-0.350811
-0.333698
-0.316585
-0.299473
-0.28236
-0.265247
-0.248135
-0.231022
-0.213909
-0.196796
-0.179684
-0.162571
-0.145458
-0.128345
-0.111233
-0.09412
-0.0770073
-0.0598945
-0.0427818
-0.0256691
-0.00855636
0.00855636
0.0256691
0.0427818
0.0598945
0.0770073
0.09412
0.111233
0.128345
0.145458
0.162571
0.179684
0.196796
0.213909
0.231022
0.248135
0.265247
0.28236
0.299473
0.316585
0.333698
0.350811
0.367924
0.385036
0.402149
0.419262
-0.415119
-0.398176
-0.381232
-0.364288
-0.347345
-0.330401
-0.313457
-0.296514
-0.27957
-0.262627
-0.245683
-0.228739
-0.211796
-0.194852
-0.177908
-0.160965
-0.144021
-0.127077
-0.110134
-0.0931901
-0.0762464
-0.0593028
-0.0423591
-0.0254155
-0.00847182
0.00847182
0.0254155
0.0423591
0.0593028
0.0762464
0.0931901
0.110134
0.127077
0.144021
0.160965
0.177908
0.194852
0.211796
0.228739
0.245683
0.262627
0.27957
0.296514
0.313457
0.330401
0.347345
0.364288
0.381232
0.398176
0.415119
-0.411238
-0.394452
-0.377667
-0.360882
-0.344097
-0.327312
-0.310526
-0.293741
-0.276956
-0.260171
-0.243386
-0.2266
-0.209815
-0.19303
-0.176245
-0.159459
-0.142674
-0.125889
-0.109104
-0.0923187
-0.0755334
-0.0587482
-0.041963
-0.0251778
-0.0083926
0.0083926
0.0251778
0.041963
0.0587482
0.0755334
0.0923187
0.109104
0.125889
0.142674
0.159459
0.176245
0.19303
0.209815
0.2266
0.243386
0.260171
0.276956
0.293741
0.310526
0.327312
0.344097
0.360882
0.377667
0.394452
0.411238
-0.407642
-0.391004
-0.374365
-0.357727
-0.341088
-0.32445
-0.307811
-0.291173
-0.274534
-0.257896
-0.241258
-0.224619
-0.207981
-0.191342
-0.174704
-0.158065
-0.141427
-0.124788
-0.10815
-0.0915115
-0.074873
-0.0582346
-0.0415961
-0.0249577
-0.00831923
0.00831923
0.0249577
0.0415961
0.0582346
0.074873
0.0915115
0.10815
0.124788
0.141427
0.158065
0.174704
0.191342
0.207981
0.224619
0.241258
0.257896
0.274534
0.291173
0.307811
0.32445
0.341088
0.357727
0.374365
0.391004
0.407642
-0.404358
-0.387854
-0.37135
-0.354845
-0.338341
-0.321836
-0.305332
-0.288827
-0.272323
-0.255819
-0.239314
-0.22281
-0.206305
-0.189801
-0.173296
-0.156792
-0.140288
-0.123783
-0.107279
-0.0907743
-0.0742699
-0.0577655
-0.0412611
-0.0247566
-0.00825221
0.00825221
0.0247566
0.0412611
0.0577655
0.0742699
0.0907743
0.107279
0.123783
0.140288
0.156792
0.173296
0.189801
0.206305
0.22281
0.239314
0.255819
0.272323
0.288827
0.305332
0.321836
0.338341
0.354845
0.37135
0.387854
0.404358
-0.401413
-0.385028
-0.368644
-0.35226
-0.335876
-0.319492
-0.303108
-0.286723
-0.270339
-0.253955
-0.237571
-0.221187
-0.204802
-0.188418
-0.172034
-0.15565
-0.139266
-0.122881
-0.106497
-0.090113
-0.0737289
-0.0573447
-0.0409605
-0.0245763
-0.00819209
0.00819209
0.0245763
0.0409605
0.0573447
0.0737289
0.090113
0.106497
0.122881
0.139266
0.15565
0.172034
0.188418
0.204802
0.221187
0.237571
0.253955
0.270339
0.286723
0.303108
0.319492
0.335876
0.35226
0.368644
0.385028
0.401413
-0.39883
-0.382551
-0.366273
-0.349994
-0.333715
-0.317436
-0.301157
-0.284879
-0.2686
-0.252321
-0.236042
-0.219764
-0.203485
-0.187206
-0.170927
-0.154648
-0.13837
-0.122091
-0.105812
-0.0895333
-0.0732545
-0.0569757
-0.0406969
-0.0244182
-0.00813939
0.00813939
0.0244182
0.0406969
0.0569757
0.0732545
0.0895333
0.105812
0.122091
0.13837
0.154648
0.170927
0.187206
0.203485
0.219764
0.236042
0.252321
0.2686
0.284879
0.301157
0.317436
0.333715
0.349994
0.366273
0.382551
0.39883
-0.396634
-0.380445
-0.364256
-0.348067
-0.331878
-0.315689
-0.299499
-0.28331
-0.267121
-0.250932
-0.234743
-0.218554
-0.202364
-0.186175
-0.169986
-0.153797
-0.137608
-0.121419
-0.10523
-0.0890404
-0.0728512
-0.0566621
-0.0404729
-0.0242837
-0.00809458
0.00809458
0.0242837
0.0404729
0.0566621
0.0728512
0.0890404
0.10523
0.121419
0.137608
0.153797
0.169986
0.186175
0.202364
0.218554
0.234743
0.250932
0.267121
0.28331
0.299499
0.315689
0.331878
0.348067
0.364256
0.380445
0.396634
-0.394848
-0.378731
-0.362615
-0.346499
-0.330383
-0.314266
-0.29815
-0.282034
-0.265918
-0.249802
-0.233685
-0.217569
-0.201453
-0.185337
-0.16922
-0.153104
-0.136988
-0.120872
-0.104755
-0.0886393
-0.072523
-0.0564068
-0.0402906
-0.0241743
-0.00805811
0.00805811
0.0241743
0.0402906
0.0564068
0.072523
0.0886393
0.104755
0.120872
0.136988
0.153104
0.16922
0.185337
0.201453
0.217569
0.233685
0.249802
0.265918
0.282034
0.29815
0.314266
0.330383
0.346499
0.362615
0.378731
0.394848
-0.393489
-0.377429
-0.361368
-0.345307
-0.329246
-0.313185
-0.297125
-0.281064
-0.265003
-0.248942
-0.232881
-0.216821
-0.20076
-0.184699
-0.168638
-0.152578
-0.136517
-0.120456
-0.104395
-0.0883344
-0.0722736
-0.0562128
-0.040152
-0.0240912
-0.0080304
0.0080304
0.0240912
0.040152
0.0562128
0.0722736
0.0883344
0.104395
0.120456
0.136517
0.152578
0.168638
0.184699
0.20076
0.216821
0.232881
0.248942
0.265003
0.281064
0.297125
0.313185
0.329246
0.345307
0.361368
0.377429
0.393489
-0.392575
-0.376552
-0.360528
-0.344505
-0.328481
-0.312458
-0.296434
-0.280411
-0.264387
-0.248364
-0.23234
-0.216317
-0.200293
-0.18427
-0.168246
-0.152223
-0.1362
-0.120176
-0.104153
-0.0881291
-0.0721056
-0.0560822
-0.0400587
-0.0240352
-0.00801174
0.00801174
0.0240352
0.0400587
0.0560822
0.0721056
0.0881291
0.104153
0.120176
0.1362
0.152223
0.168246
0.18427
0.200293
0.216317
0.23234
0.248364
0.264387
0.280411
0.296434
0.312458
0.328481
0.344505
0.360528
0.376552
0.392575
-0.392115
-0.376111
-0.360106
-0.344101
-0.328096
-0.312092
-0.296087
-0.280082
-0.264078
-0.248073
-0.232068
-0.216064
-0.200059
-0.184054
-0.168049
-0.152045
-0.13604
-0.120035
-0.104031
-0.0880259
-0.0720212
-0.0560165
-0.0400118
-0.0240071
-0.00800235
0.00800235
0.0240071
0.0400118
0.0560165
0.0720212
0.0880259
0.104031
0.120035
0.13604
0.152045
0.168049
0.184054
0.200059
0.216064
0.232068
0.248073
0.264078
0.280082
0.296087
0.312092
0.328096
0.344101
0.360106
0.376111
0.392115
-0.392115
-0.376111
-0.360106
-0.344101
-0.328096
-0.312092
-0.296087
-0.280082
-0.264078
-0.248073
-0.232068
-0.216064
-0.200059
-0.184054
-0.168049
-0.152045
-0.13604
-0.120035
-0.104031
-0.0880259
-0.0720212
-0.0560165
-0.0400118
-0.0240071
-0.00800235
0.00800235
0.0240071
0.0400118
0.0560165
0.0720212
0.0880259
0.104031
0.120035
0.13604
0.152045
0.168049
0.184054
0.200059
0.216064
0.232068
0.248073
0.264078
0.280082
0.296087
0.312092
0.328096
0.344101
0.360106
0.376111
0.392115
-0.392575
-0.376552
-0.360528
-0.344505
-0.328481
-0.312458
-0.296434
-0.280411
-0.264387
-0.248364
-0.23234
-0.216317
-0.200293
-0.18427
-0.168246
-0.152223
-0.1362
-0.120176
-0.104153
-0.0881291
-0.0721056
-0.0560822
-0.0400587
-0.0240352
-0.00801174
0.00801174
0.0240352
0.0400587
0.0560822
0.0721056
0.0881291
0.104153
0.120176
0.1362
0.152223
0.168246
0.18427
0.200293
0.216317
0.23234
0.248364
0.264387
0.280411
0.296434
0.312458
0.328481
0.344505
0.360528
0.376552
0.392575
-0.393489
-0.377429
-0.361368
-0.345307
-0.329246
-0.313185
-0.297125
-0.281064
-0.265003
-0.248942
-0.232881
-0.216821
-0.20076
-0.184699
-0.168638
-0.152578
-0.136517
-0.120456
-0.104395
-0.0883344
-0.0722736
-0.0562128
-0.040152
-0.0240912
-0.0080304
0.0080304
0.0240912
0.040152
0.0562128
0.0722736
0.0883344
0.104395
0.120456
0.136517
0.152578
0.168638
0.184699
0.20076
0.216821
0.232881
0.248942
0.265003
0.281064
0.297125
0.313185
0.329246
0.345307
0.361368
0.377429
0.393489
-0.394848
-0.378731
-0.362615
-0.346499
-0.330383
-0.314266
-0.29815
-0.282034
-0.265918
-0.249802
-0.233685
-0.217569
-0.201453
-0.185337
-0.16922
-0.153104
-0.136988
-0.120872
-0.104755
-0.0886393
-0.072523
-0.0564068
-0.0402906
-0.0241743
-0.00805811
0.00805811
0.0241743
0.0402906
0.0564068
0.072523
0.0886393
0.104755
0.120872
0.136988
0.153104
0.16922
0.185337
0.201453
0.217569
0.233685
0.249802
0.265918
0.282034
0.29815
0.314266
0.330383
0.346499
0.362615
0.378731
0.394848
-0.396634
-0.380445
-0.364256
-0.348067
-0.331878
-0.315689
-0.299499
-0.28331
-0.267121
-0.250932
-0.234743
-0.218554
-0.202364
-0.186175
-0.169986
-0.153797
-0.137608
-0.121419
-0.10523
-0.0890404
-0.0728512
-0.0566621
-0.0404729
-0.0242837
-0.00809458
0.00809458
0.0242837
0.0404729
0.0566621
0.0728512
0.0890404
0.10523
0.121419
0.137608
0.153797
0.169986
0.186175
0.202364
0.218554
0.234743
0.250932
0.267121
0.28331
0.299499
0.315689
0.331878
0.348067
0.364256
0.380445
0.396634
-0.39883
-0.382551
-0.366273
-0.349994
-0.333715
-0.317436
-0.301157
-0.284879
-0.2686
-0.252321
-0.236042
-0.219764
-0.203485
-0.187206
-0.170927
-0.154648
-0.13837
-0.122091
-0.105812
-0.0895333
-0.0732545
-0.0569757
-0.0406969
-0.0244182
-0.00813939
0.00813939
0.0244182
0.0406969
0.0569757
0.0732545
0.0895333
0.105812
0.122091
0.13837
0.154648
0.170927
0.187206
0.203485
0.219764
0.236042
0.252321
0.2686
0.284879
0.301157
0.317436
0.333715
0.349994
0.366273
0.382551
0.39883
-0.401413
-0.385028
-0.368644
-0.35226
-0.335876
-0.319492
-0.303108
-0.286723
-0.270339
-0.253955
-0.237571
-0.221187
-0.204802
-0.188418
-0.172034
-0.15565
-0.139266
-0.122881
-0.106497
-0.090113
-0.0737289
-0.0573447
-0.0409605
-0.0245763
-0.00819209
0.00819209
0.0245763
0.0409605
0.0573447
0.0737289
0.090113
0.106497
0.122881
0.139266
0.15565
0.172034
0.188418
0.204802
0.221187
0.237571
0.253955
0.270339
0.286723
0.303108
0.319492
0.335876
0.35226
0.368644
0.385028
0.401413
-0.404358
-0.387854
-0.37135
-0.354845
-0.338341
-0.321836
-0.305332
-0.288827
-0.272323
-0.255819
-0.239314
-0.22281
-0.206305
-0.189801
-0.173296
-0.156792
-0.140288
-0.123783
-0.107279
-0.0907743
-0.0742699
-0.0577655
-0.0412611
-0.0247566
-0.00825221
0.00825221
0.0247566
0.0412611
0.0577655
0.0742699
0.0907743
0.107279
0.123783
0.140288
0.156792
0.173296
0.189801
0.206305
0.22281
0.239314
0.255819
0.272323
0.288827
0.305332
0.321836
0.338341
0.354845
0.37135
0.387854
0.404358
-0.407642
-0.391004
-0.374365
-0.357727
-0.341088
-0.32445
-0.307811
-0.291173
-0.274534
-0.257896
-0.241258
-0.224619
-0.207981
-0.191342
-0.174704
-0.158065
-0.141427
-0.124788
-0.10815
-0.0915115
-0.074873
-0.0582346
-0.0415961
-0.0249577
-0.00831923
0.00831923
0.0249577
0.0415961
0.0582346
0.074873
0.0915115
0.10815
0.124788
0.141427
0.158065
0.174704
0.191342
0.207981
0.224619
0.241258
0.257896
0.274534
0.291173
0.307811
0.32445
0.341088
0.357727
0.374365
0.391004
0.407642
-0.411238
-0.394452
-0.377667
-0.360882
-0.344097
-0.327312
-0.310526
-0.293741
-0.276956
-0.260171
-0.243386
-0.2266
-0.209815
-0.19303
-0.176245
-0.159459
-0.142674
-0.125889
-0.109104
-0.0923187
-0.0755334
-0.0587482
-0.041963
-0.0251778
-0.0083926
0.0083926
0.0251778
0.041963
0.0587482
0.0755334
0.0923187
0.109104
0.125889
0.142674
0.159459
0.176245
0.19303
0.209815
0.2266
0.243386
0.260171
0.276956
0.293741
0.310526
0.327312
0.344097
0.360882
0.377667
0.394452
0.411238
-0.415119
-0.398176
-0.381232
-0.364288
-0.347345
-0.330401
-0.313457
-0.296514
-0.27957
-0.262627
-0.245683
-0.228739
-0.211796
-0.194852
-0.177908
-0.160965
-0.144021
-0.127077
-0.110134
-0.0931901
-0.0762464
-0.0593028
-0.0423591
-0.0254155
-0.00847182
0.00847182
0.0254155
0.0423591
0.0593028
0.0762464
0.0931901
0.110134
0.127077
0.144021
0.160965
0.177908
0.194852
0.211796
0.228739
0.245683
0.262627
0.27957
0.296514
0.313457
0.330401
0.347345
0.364288
0.381232
0.398176
0.415119
-0.419262
-0.402149
-0.385036
-0.367924
-0.350811
-0.333698
-0.316585
-0.299473
-0.28236
-0.265247
-0.248135
-0.231022
-0.213909
-0.196796
-0.179684
-0.162571
-0.145458
-0.128345
-0.111233
-0.09412
-0.0770073
-0.0598945
-0.0427818
-0.0256691
-0.00855636
0.00855636
0.0256691
0.0427818
0.0598945
0.0770073
0.09412
0.111233
0.128345
0.145458
0.162571
0.179684
0.196796
0.213909
0.231022
0.248135
0.265247
0.28236
0.299473
0.316585
0.333698
0.350811
0.367924
0.385036
0.402149
0.419262
-0.42364
-0.406349
-0.389057
-0.371766
-0.354475
-0.337183
-0.319892
-0.3026
-0.285309
-0.268017
-0.250726
-0.233434
-0.216143
-0.198852
-0.18156
-0.164269
-0.146977
-0.129686
-0.112394
-0.0951029
-0.0778115
-0.06052
-0.0432286
-0.0259372
-0.00864572
0.00864572
0.0259372
0.0432286
0.06052
0.0778115
0.0951029
0.112394
0.129686
0.146977
0.164269
0.18156
0.198852
0.216143
0.233434
0.250726
0.268017
0.285309
0.3026
0.319892
0.337183
0.354475
0.371766
0.389057
0.406349
0.42364
-0.428232
-0.410753
-0.393274
-0.375795
-0.358316
-0.340837
-0.323359
-0.30588
-0.288401
-0.270922
-0.253443
-0.235964
-0.218486
-0.201007
-0.183528
-0.166049
-0.14857
-0.131091
-0.113612
-0.0961336
-0.0786548
-0.0611759
-0.0436971
-0.0262183
-0.00873942
0.00873942
0.0262183
0.0436971
0.0611759
0.0786548
0.0961336
0.113612
0.131091
0.14857
0.166049
0.183528
0.201007
0.218486
0.235964
0.253443
0.270922
0.288401
0.30588
0.323359
0.340837
0.358316
0.375795
0.393274
0.410753
0.428232
-0.433013
-0.415339
-0.397665
-0.379991
-0.362317
-0.344643
-0.326969
-0.309295
-0.291621
-0.273947
-0.256273
-0.238599
-0.220925
-0.203251
-0.185577
-0.167903
-0.150229
-0.132555
-0.114881
-0.097207
-0.079533
-0.061859
-0.044185
-0.026511
-0.008837
0.008837
0.026511
0.044185
0.061859
0.079533
0.097207
0.114881
0.132555
0.150229
0.167903
0.185577
0.203251
0.220925
0.238599
0.256273
0.273947
0.291621
0.309295
0.326969
0.344643
0.362317
0.379991
0.397665
0.415339
0.433013
-0.437964
-0.420088
-0.402212
-0.384336
-0.36646
-0.348584
-0.330707
-0.312831
-0.294955
-0.277079
-0.259203
-0.241327
-0.223451
-0.205575
-0.187699
-0.169823
-0.151947
-0.134071
-0.116195
-0.0983184
-0.0804424
-0.0625663
-0.0446902
-0.0268141
-0.00893804
0.00893804
0.0268141
0.0446902
0.0625663
0.0804424
0.0983184
0.116195
0.134071
0.151947
0.169823
0.187699
0.205575
0.223451
0.241327
0.259203
0.277079
0.294955
0.312831
0.330707
0.348584
0.36646
0.384336
0.402212
0.420088
0.437964
-0.443064
-0.42498
-0.406895
-0.388811
-0.370727
-0.352643
-0.334558
-0.316474
-0.29839
-0.280306
-0.262221
-0.244137
-0.226053
-0.207969
-0.189885
-0.1718
-0.153716
-0.135632
-0.117548
-0.0994633
-0.0813791
-0.0632948
-0.0452106
-0.0271264
-0.00904212
0.00904212
0.0271264
0.0452106
0.0632948
0.0813791
0.0994633
0.117548
0.135632
0.153716
0.1718
0.189885
0.207969
0.226053
0.244137
0.262221
0.280306
0.29839
0.316474
0.334558
0.352643
0.370727
0.388811
0.406895
0.42498
0.443064
-0.448294
-0.429996
-0.411699
-0.393401
-0.375103
-0.356806
-0.338508
-0.32021
-0.301912
-0.283615
-0.265317
-0.247019
-0.228722
-0.210424
-0.192126
-0.173828
-0.155531
-0.137233
-0.118935
-0.100637
-0.0823398
-0.064042
-0.0457443
-0.0274466
-0.00914886
0.00914886
0.0274466
0.0457443
0.064042
0.0823398
0.100637
0.118935
0.137233
0.155531
0.173828
0.192126
0.210424
0.228722
0.247019
0.265317
0.283615
0.301912
0.32021
0.338508
0.356806
0.375103
0.393401
0.411699
0.429996
0.448294
-0.453637
-0.435121
-0.416605
-0.39809
-0.379574
-0.361058
-0.342542
-0.324026
-0.305511
-0.286995
-0.268479
-0.249963
-0.231447
-0.212932
-0.194416
-0.1759
-0.157384
-0.138868
-0.120353
-0.101837
-0.0833211
-0.0648053
-0.0462895
-0.0277737
-0.0092579
0.0092579
0.0277737
0.0462895
0.0648053
0.0833211
0.101837
0.120353
0.138868
0.157384
0.1759
0.194416
0.212932
0.231447
0.249963
0.268479
0.286995
0.305511
0.324026
0.342542
0.361058
0.379574
0.39809
0.416605
0.435121
0.453637
-0.459075
-0.440338
-0.4216
-0.402862
-0.384124
-0.365387
-0.346649
-0.327911
-0.309173
-0.290436
-0.271698
-0.25296
-0.234222
-0.215484
-0.196747
-0.178009
-0.159271
-0.140533
-0.121796
-0.103058
-0.08432
-0.0655822
-0.0468444
-0.0281067
-0.00936889
0.00936889
0.0281067
0.0468444
0.0655822
0.08432
0.103058
0.121796
0.140533
0.159271
0.178009
0.196747
0.215484
0.234222
0.25296
0.271698
0.290436
0.309173
0.327911
0.346649
0.365387
0.384124
0.402862
0.4216
0.440338
0.459075
-0.464593
-0.44563
-0.426667
-0.407704
-0.388741
-0.369778
-0.350815
-0.331852
-0.312889
-0.293926
-0.274963
-0.256
-0.237037
-0.218074
-0.199111
-0.180148
-0.161185
-0.142222
-0.123259
-0.104296
-0.0853335
-0.0663705
-0.0474075
-0.0284445
-0.0094815
0.0094815
0.0284445
0.0474075
0.0663705
0.0853335
0.104296
0.123259
0.142222
0.161185
0.180148
0.199111
0.218074
0.237037
0.256
0.274963
0.293926
0.312889
0.331852
0.350815
0.369778
0.388741
0.407704
0.426667
0.44563
0.464593
-0.470175
-0.450985
-0.431794
-0.412603
-0.393412
-0.374221
-0.35503
-0.33584
-0.316649
-0.297458
-0.278267
-0.259076
-0.239885
-0.220695
-0.201504
-0.182313
-0.163122
-0.143931
-0.12474
-0.10555
-0.0863587
-0.0671679
-0.0479771
-0.0287862
-0.00959542
0.00959542
0.0287862
0.0479771
0.0671679
0.0863587
0.10555
0.12474
0.143931
0.163122
0.182313
0.201504
0.220695
0.239885
0.259076
0.278267
0.297458
0.316649
0.33584
0.35503
0.374221
0.393412
0.412603
0.431794
0.450985
0.470175
-0.475807
-0.456386
-0.436965
-0.417545
-0.398124
-0.378703
-0.359283
-0.339862
-0.320441
-0.30102
-0.2816
-0.262179
-0.242758
-0.223338
-0.203917
-0.184496
-0.165076
-0.145655
-0.126234
-0.106814
-0.087393
-0.0679724
-0.0485517
-0.029131
-0.00971034
0.00971034
0.029131
0.0485517
0.0679724
0.087393
0.106814
0.126234
0.145655
0.165076
0.184496
0.203917
0.223338
0.242758
0.262179
0.2816
0.30102
0.320441
0.339862
0.359283
0.378703
0.398124
0.417545
0.436965
0.456386
0.475807
-0.481472
-0.461821
-0.442169
-0.422517
-0.402865
-0.383213
-0.363561
-0.343909
-0.324257
-0.304605
-0.284953
-0.265301
-0.245649
-0.225997
-0.206345
-0.186693
-0.167041
-0.14739
-0.127738
-0.108086
-0.0884337
-0.0687818
-0.0491298
-0.0294779
-0.00982597
0.00982597
0.0294779
0.0491298
0.0687818
0.0884337
0.108086
0.127738
0.14739
0.167041
0.186693
0.206345
0.225997
0.245649
0.265301
0.284953
0.304605
0.324257
0.343909
0.363561
0.383213
0.402865
0.422517
0.442169
0.461821
0.481472
-0.487159
-0.467275
-0.447391
-0.427507
-0.407623
-0.387739
-0.367855
-0.347971
-0.328087
-0.308203
-0.288319
-0.268434
-0.24855
-0.228666
-0.208782
-0.188898
-0.169014
-0.14913
-0.129246
-0.109362
-0.0894782
-0.0695941
-0.0497101
-0.0298261
-0.00994202
0.00994202
0.0298261
0.0497101
0.0695941
0.0894782
0.109362
0.129246
0.14913
0.169014
0.188898
0.208782
0.228666
0.24855
0.268434
0.288319
0.308203
0.328087
0.347971
0.367855
0.387739
0.407623
0.427507
0.447391
0.467275
0.487159
)
;

boundaryField
{
    left
    {
        type            calculated;
        value           nonuniform List<scalar> 
50
(
-0.497095
-0.491293
-0.485511
-0.479765
-0.474069
-0.468439
-0.462889
-0.457438
-0.452101
-0.446897
-0.441846
-0.436967
-0.432282
-0.427814
-0.423588
-0.419627
-0.415959
-0.412609
-0.409603
-0.406968
-0.404728
-0.402905
-0.40152
-0.400587
-0.400118
-0.400118
-0.400587
-0.40152
-0.402905
-0.404728
-0.406968
-0.409603
-0.412609
-0.415959
-0.419627
-0.423588
-0.427814
-0.432282
-0.436967
-0.441846
-0.446897
-0.452101
-0.457438
-0.462889
-0.468439
-0.474069
-0.479765
-0.485511
-0.491293
-0.497095
)
;
    }
    right
    {
        type            calculated;
        value           nonuniform List<scalar> 
50
(
0.497095
0.491293
0.485511
0.479765
0.474069
0.468439
0.462889
0.457438
0.452101
0.446897
0.441846
0.436967
0.432282
0.427814
0.423588
0.419627
0.415959
0.412609
0.409603
0.406968
0.404728
0.402905
0.40152
0.400587
0.400118
0.400118
0.400587
0.40152
0.402905
0.404728
0.406968
0.409603
0.412609
0.415959
0.419627
0.423588
0.427814
0.432282
0.436967
0.441846
0.446897
0.452101
0.457438
0.462889
0.468439
0.474069
0.479765
0.485511
0.491293
0.497095
)
;
    }
    up
    {
        type            calculated;
        value           nonuniform List<scalar> 
50
(
-0.49
-0.47
-0.45
-0.43
-0.41
-0.39
-0.37
-0.35
-0.33
-0.31
-0.29
-0.27
-0.25
-0.23
-0.21
-0.19
-0.17
-0.15
-0.13
-0.11
-0.09
-0.07
-0.05
-0.03
-0.01
0.01
0.03
0.05
0.07
0.09
0.11
0.13
0.15
0.17
0.19
0.21
0.23
0.25
0.27
0.29
0.31
0.33
0.35
0.37
0.39
0.41
0.43
0.45
0.47
0.49
)
;
    }
    down
    {
        type            calculated;
        value           nonuniform List<scalar> 
50
(
-0.49
-0.47
-0.45
-0.43
-0.41
-0.39
-0.37
-0.35
-0.33
-0.31
-0.29
-0.27
-0.25
-0.23
-0.21
-0.19
-0.17
-0.15
-0.13
-0.11
-0.09
-0.07
-0.05
-0.03
-0.01
0.01
0.03
0.05
0.07
0.09
0.11
0.13
0.15
0.17
0.19
0.21
0.23
0.25
0.27
0.29
0.31
0.33
0.35
0.37
0.39
0.41
0.43
0.45
0.47
0.49
)
;
    }
    frontAndBack
    {
        type            empty;
    }
}


// ************************************************************************* //
