/*--------------------------------*- C++ -*----------------------------------*\
  =========                 |
  \\      /  F ield         | OpenFOAM: The Open Source CFD Toolbox
   \\    /   O peration     | Website:  https://openfoam.org
    \\  /    A nd           | Version:  6
     \\/     M anipulation  |
\*---------------------------------------------------------------------------*/
FoamFile
{
    version     2.0;
    format      ascii;
    class       volScalarField;
    location    "0";
    object      Cx;
}
// * * * * * * * * * * * * * * * * * * * * * * * * * * * * * * * * * * * * * //

dimensions      [0 1 0 0 0 0 0];

internalField   nonuniform List<scalar> 
2500
(
-0.490765
-0.470734
-0.450702
-0.430671
-0.41064
-0.390609
-0.370578
-0.350546
-0.330515
-0.310484
-0.290453
-0.270421
-0.25039
-0.230359
-0.210328
-0.190297
-0.170265
-0.150234
-0.130203
-0.110172
-0.0901405
-0.0701093
-0.0500781
-0.0300468
-0.0100156
0.0100156
0.0300468
0.0500781
0.0701093
0.0901405
0.110172
0.130203
0.150234
0.170265
0.190297
0.210328
0.230359
0.25039
0.270421
0.290453
0.310484
0.330515
0.350546
0.370578
0.390609
0.41064
0.430671
0.450702
0.470734
0.490765
-0.492291
-0.472198
-0.452104
-0.432011
-0.411917
-0.391824
-0.37173
-0.351637
-0.331543
-0.311449
-0.291356
-0.271262
-0.251169
-0.231075
-0.210982
-0.190888
-0.170795
-0.150701
-0.130608
-0.110514
-0.0904208
-0.0703273
-0.0502338
-0.0301403
-0.0100468
0.0100468
0.0301403
0.0502338
0.0703273
0.0904208
0.110514
0.130608
0.150701
0.170795
0.190888
0.210982
0.231075
0.251169
0.271262
0.291356
0.311449
0.331543
0.351637
0.37173
0.391824
0.411917
0.432011
0.452104
0.472198
0.492291
-0.493809
-0.473653
-0.453498
-0.433342
-0.413187
-0.393031
-0.372876
-0.35272
-0.332565
-0.31241
-0.292254
-0.272099
-0.251943
-0.231788
-0.211632
-0.191477
-0.171321
-0.151166
-0.13101
-0.110855
-0.0906995
-0.0705441
-0.0503886
-0.0302332
-0.0100777
0.0100777
0.0302332
0.0503886
0.0705441
0.0906995
0.110855
0.13101
0.151166
0.171321
0.191477
0.211632
0.231788
0.251943
0.272099
0.292254
0.31241
0.332565
0.35272
0.372876
0.393031
0.413187
0.433342
0.453498
0.473653
0.493809
-0.495312
-0.475095
-0.454878
-0.434661
-0.414444
-0.394228
-0.374011
-0.353794
-0.333577
-0.31336
-0.293144
-0.272927
-0.25271
-0.232493
-0.212276
-0.19206
-0.171843
-0.151626
-0.131409
-0.111192
-0.0909756
-0.0707588
-0.050542
-0.0303252
-0.0101084
0.0101084
0.0303252
0.050542
0.0707588
0.0909756
0.111192
0.131409
0.151626
0.171843
0.19206
0.212276
0.232493
0.25271
0.272927
0.293144
0.31336
0.333577
0.353794
0.374011
0.394228
0.414444
0.434661
0.454878
0.475095
0.495312
-0.496794
-0.476517
-0.45624
-0.435962
-0.415685
-0.395408
-0.37513
-0.354853
-0.334576
-0.314298
-0.294021
-0.273744
-0.253466
-0.233189
-0.212912
-0.192634
-0.172357
-0.15208
-0.131803
-0.111525
-0.0912479
-0.0709706
-0.0506933
-0.030416
-0.0101387
0.0101387
0.030416
0.0506933
0.0709706
0.0912479
0.111525
0.131803
0.15208
0.172357
0.192634
0.212912
0.233189
0.253466
0.273744
0.294021
0.314298
0.334576
0.354853
0.37513
0.395408
0.415685
0.435962
0.45624
0.476517
0.496794
-0.498251
-0.477914
-0.457577
-0.437241
-0.416904
-0.396567
-0.37623
-0.355894
-0.335557
-0.31522
-0.294883
-0.274546
-0.25421
-0.233873
-0.213536
-0.193199
-0.172863
-0.152526
-0.132189
-0.111852
-0.0915155
-0.0711787
-0.0508419
-0.0305052
-0.0101684
0.0101684
0.0305052
0.0508419
0.0711787
0.0915155
0.111852
0.132189
0.152526
0.172863
0.193199
0.213536
0.233873
0.25421
0.274546
0.294883
0.31522
0.335557
0.355894
0.37623
0.396567
0.416904
0.437241
0.457577
0.477914
0.498251
-0.499676
-0.479281
-0.458886
-0.438491
-0.418096
-0.397701
-0.377306
-0.356911
-0.336517
-0.316122
-0.295727
-0.275332
-0.254937
-0.234542
-0.214147
-0.193752
-0.173357
-0.152962
-0.132567
-0.112172
-0.0917772
-0.0713823
-0.0509874
-0.0305924
-0.0101975
0.0101975
0.0305924
0.0509874
0.0713823
0.0917772
0.112172
0.132567
0.152962
0.173357
0.193752
0.214147
0.234542
0.254937
0.275332
0.295727
0.316122
0.336517
0.356911
0.377306
0.397701
0.418096
0.438491
0.458886
0.479281
0.499676
-0.501064
-0.480613
-0.460161
-0.439709
-0.419258
-0.398806
-0.378355
-0.357903
-0.337451
-0.317
-0.296548
-0.276097
-0.255645
-0.235193
-0.214742
-0.19429
-0.173839
-0.153387
-0.132935
-0.112484
-0.0920322
-0.0715806
-0.051129
-0.0306774
-0.0102258
0.0102258
0.0306774
0.051129
0.0715806
0.0920322
0.112484
0.132935
0.153387
0.173839
0.19429
0.214742
0.235193
0.255645
0.276097
0.296548
0.317
0.337451
0.357903
0.378355
0.398806
0.419258
0.439709
0.460161
0.480613
0.501064
-0.50241
-0.481903
-0.461397
-0.44089
-0.420384
-0.399877
-0.379371
-0.358864
-0.338358
-0.317851
-0.297344
-0.276838
-0.256331
-0.235825
-0.215318
-0.194812
-0.174305
-0.153799
-0.133292
-0.112786
-0.0922793
-0.0717728
-0.0512663
-0.0307598
-0.0102533
0.0102533
0.0307598
0.0512663
0.0717728
0.0922793
0.112786
0.133292
0.153799
0.174305
0.194812
0.215318
0.235825
0.256331
0.276838
0.297344
0.317851
0.338358
0.358864
0.379371
0.399877
0.420384
0.44089
0.461397
0.481903
0.50241
-0.503707
-0.483148
-0.462588
-0.442029
-0.421469
-0.40091
-0.38035
-0.359791
-0.339231
-0.318672
-0.298113
-0.277553
-0.256994
-0.236434
-0.215875
-0.195315
-0.174756
-0.154196
-0.133637
-0.113077
-0.0925177
-0.0719582
-0.0513987
-0.0308392
-0.0102797
0.0102797
0.0308392
0.0513987
0.0719582
0.0925177
0.113077
0.133637
0.154196
0.174756
0.195315
0.215875
0.236434
0.256994
0.277553
0.298113
0.318672
0.339231
0.359791
0.38035
0.40091
0.421469
0.442029
0.462588
0.483148
0.503707
-0.504952
-0.484342
-0.463732
-0.443121
-0.422511
-0.401901
-0.38129
-0.36068
-0.34007
-0.319459
-0.298849
-0.278239
-0.257629
-0.237018
-0.216408
-0.195798
-0.175187
-0.154577
-0.133967
-0.113357
-0.0927463
-0.072136
-0.0515257
-0.0309154
-0.0103051
0.0103051
0.0309154
0.0515257
0.072136
0.0927463
0.113357
0.133967
0.154577
0.175187
0.195798
0.216408
0.237018
0.257629
0.278239
0.298849
0.319459
0.34007
0.36068
0.38129
0.401901
0.422511
0.443121
0.463732
0.484342
0.504952
-0.506139
-0.48548
-0.464821
-0.444163
-0.423504
-0.402845
-0.382187
-0.361528
-0.340869
-0.32021
-0.299552
-0.278893
-0.258234
-0.237575
-0.216917
-0.196258
-0.175599
-0.15494
-0.134282
-0.113623
-0.0929643
-0.0723056
-0.0516468
-0.0309881
-0.0103294
0.0103294
0.0309881
0.0516468
0.0723056
0.0929643
0.113623
0.134282
0.15494
0.175599
0.196258
0.216917
0.237575
0.258234
0.278893
0.299552
0.32021
0.340869
0.361528
0.382187
0.402845
0.423504
0.444163
0.464821
0.48548
0.506139
-0.507263
-0.486558
-0.465854
-0.445149
-0.424445
-0.40374
-0.383035
-0.362331
-0.341626
-0.320921
-0.300217
-0.279512
-0.258808
-0.238103
-0.217398
-0.196694
-0.175989
-0.155285
-0.13458
-0.113875
-0.0931708
-0.0724661
-0.0517615
-0.0310569
-0.0103523
0.0103523
0.0310569
0.0517615
0.0724661
0.0931708
0.113875
0.13458
0.155285
0.175989
0.196694
0.217398
0.238103
0.258808
0.279512
0.300217
0.320921
0.341626
0.362331
0.383035
0.40374
0.424445
0.445149
0.465854
0.486558
0.507263
-0.50832
-0.487572
-0.466824
-0.446077
-0.425329
-0.404581
-0.383833
-0.363086
-0.342338
-0.32159
-0.300842
-0.280095
-0.259347
-0.238599
-0.217851
-0.197104
-0.176356
-0.155608
-0.13486
-0.114113
-0.0933649
-0.0726171
-0.0518694
-0.0311216
-0.0103739
0.0103739
0.0311216
0.0518694
0.0726171
0.0933649
0.114113
0.13486
0.155608
0.176356
0.197104
0.217851
0.238599
0.259347
0.280095
0.300842
0.32159
0.342338
0.363086
0.383833
0.404581
0.425329
0.446077
0.466824
0.487572
0.50832
-0.509305
-0.488517
-0.467729
-0.446941
-0.426153
-0.405365
-0.384577
-0.363789
-0.343001
-0.322213
-0.301425
-0.280637
-0.259849
-0.239062
-0.218274
-0.197486
-0.176698
-0.15591
-0.135122
-0.114334
-0.0935458
-0.0727579
-0.0519699
-0.0311819
-0.010394
0.010394
0.0311819
0.0519699
0.0727579
0.0935458
0.114334
0.135122
0.15591
0.176698
0.197486
0.218274
0.239062
0.259849
0.280637
0.301425
0.322213
0.343001
0.363789
0.384577
0.405365
0.426153
0.446941
0.467729
0.488517
0.509305
-0.510214
-0.489389
-0.468564
-0.447739
-0.426914
-0.406089
-0.385264
-0.364439
-0.343614
-0.322789
-0.301964
-0.281139
-0.260313
-0.239488
-0.218663
-0.197838
-0.177013
-0.156188
-0.135363
-0.114538
-0.0937129
-0.0728878
-0.0520627
-0.0312376
-0.0104125
0.0104125
0.0312376
0.0520627
0.0728878
0.0937129
0.114538
0.135363
0.156188
0.177013
0.197838
0.218663
0.239488
0.260313
0.281139
0.301964
0.322789
0.343614
0.364439
0.385264
0.406089
0.426914
0.447739
0.468564
0.489389
0.510214
-0.511044
-0.490185
-0.469326
-0.448468
-0.427609
-0.40675
-0.385891
-0.365032
-0.344173
-0.323314
-0.302455
-0.281596
-0.260737
-0.239878
-0.219019
-0.19816
-0.177301
-0.156442
-0.135583
-0.114724
-0.0938653
-0.0730063
-0.0521474
-0.0312884
-0.0104295
0.0104295
0.0312884
0.0521474
0.0730063
0.0938653
0.114724
0.135583
0.156442
0.177301
0.19816
0.219019
0.239878
0.260737
0.281596
0.302455
0.323314
0.344173
0.365032
0.385891
0.40675
0.427609
0.448468
0.469326
0.490185
0.511044
-0.511791
-0.490902
-0.470012
-0.449123
-0.428234
-0.407344
-0.386455
-0.365565
-0.344676
-0.323786
-0.302897
-0.282007
-0.261118
-0.240229
-0.219339
-0.19845
-0.17756
-0.156671
-0.135781
-0.114892
-0.0940025
-0.0731131
-0.0522236
-0.0313342
-0.0104447
0.0104447
0.0313342
0.0522236
0.0731131
0.0940025
0.114892
0.135781
0.156671
0.17756
0.19845
0.219339
0.240229
0.261118
0.282007
0.302897
0.323786
0.344676
0.365565
0.386455
0.407344
0.428234
0.449123
0.470012
0.490902
0.511791
-0.512452
-0.491536
-0.470619
-0.449703
-0.428786
-0.40787
-0.386954
-0.366037
-0.345121
-0.324204
-0.303288
-0.282372
-0.261455
-0.240539
-0.219622
-0.198706
-0.17779
-0.156873
-0.135957
-0.11504
-0.0941239
-0.0732074
-0.052291
-0.0313746
-0.0104582
0.0104582
0.0313746
0.052291
0.0732074
0.0941239
0.11504
0.135957
0.156873
0.17779
0.198706
0.219622
0.240539
0.261455
0.282372
0.303288
0.324204
0.345121
0.366037
0.386954
0.40787
0.428786
0.449703
0.470619
0.491536
0.512452
-0.513024
-0.492084
-0.471144
-0.450205
-0.429265
-0.408325
-0.387385
-0.366446
-0.345506
-0.324566
-0.303626
-0.282687
-0.261747
-0.240807
-0.219867
-0.198928
-0.177988
-0.157048
-0.136108
-0.115169
-0.0942289
-0.0732891
-0.0523494
-0.0314096
-0.0104699
0.0104699
0.0314096
0.0523494
0.0732891
0.0942289
0.115169
0.136108
0.157048
0.177988
0.198928
0.219867
0.240807
0.261747
0.282687
0.303626
0.324566
0.345506
0.366446
0.387385
0.408325
0.429265
0.450205
0.471144
0.492084
0.513024
-0.513504
-0.492545
-0.471586
-0.450626
-0.429667
-0.408707
-0.387748
-0.366789
-0.345829
-0.32487
-0.303911
-0.282951
-0.261992
-0.241033
-0.220073
-0.199114
-0.178155
-0.157195
-0.136236
-0.115276
-0.0943171
-0.0733578
-0.0523984
-0.031439
-0.0104797
0.0104797
0.031439
0.0523984
0.0733578
0.0943171
0.115276
0.136236
0.157195
0.178155
0.199114
0.220073
0.241033
0.261992
0.282951
0.303911
0.32487
0.345829
0.366789
0.387748
0.408707
0.429667
0.450626
0.471586
0.492545
0.513504
-0.513891
-0.492916
-0.471941
-0.450966
-0.42999
-0.409015
-0.38804
-0.367065
-0.34609
-0.325115
-0.30414
-0.283164
-0.262189
-0.241214
-0.220239
-0.199264
-0.178289
-0.157314
-0.136338
-0.115363
-0.0943882
-0.073413
-0.0524379
-0.0314627
-0.0104876
0.0104876
0.0314627
0.0524379
0.073413
0.0943882
0.115363
0.136338
0.157314
0.178289
0.199264
0.220239
0.241214
0.262189
0.283164
0.30414
0.325115
0.34609
0.367065
0.38804
0.409015
0.42999
0.450966
0.471941
0.492916
0.513891
-0.514183
-0.493196
-0.472209
-0.451222
-0.430234
-0.409247
-0.38826
-0.367273
-0.346286
-0.325299
-0.304312
-0.283325
-0.262338
-0.241351
-0.220364
-0.199377
-0.17839
-0.157403
-0.136416
-0.115429
-0.0944417
-0.0734547
-0.0524676
-0.0314806
-0.0104935
0.0104935
0.0314806
0.0524676
0.0734547
0.0944417
0.115429
0.136416
0.157403
0.17839
0.199377
0.220364
0.241351
0.262338
0.283325
0.304312
0.325299
0.346286
0.367273
0.38826
0.409247
0.430234
0.451222
0.472209
0.493196
0.514183
-0.514378
-0.493383
-0.472388
-0.451393
-0.430398
-0.409403
-0.388408
-0.367413
-0.346418
-0.325423
-0.304428
-0.283433
-0.262438
-0.241443
-0.220448
-0.199453
-0.178458
-0.157463
-0.136468
-0.115473
-0.0944775
-0.0734825
-0.0524875
-0.0314925
-0.0104975
0.0104975
0.0314925
0.0524875
0.0734825
0.0944775
0.115473
0.136468
0.157463
0.178458
0.199453
0.220448
0.241443
0.262438
0.283433
0.304428
0.325423
0.346418
0.367413
0.388408
0.409403
0.430398
0.451393
0.472388
0.493383
0.514378
-0.514476
-0.493477
-0.472478
-0.451479
-0.43048
-0.409481
-0.388482
-0.367483
-0.346484
-0.325485
-0.304486
-0.283487
-0.262488
-0.241489
-0.22049
-0.199491
-0.178492
-0.157493
-0.136494
-0.115495
-0.0944955
-0.0734965
-0.0524975
-0.0314985
-0.0104995
0.0104995
0.0314985
0.0524975
0.0734965
0.0944955
0.115495
0.136494
0.157493
0.178492
0.199491
0.22049
0.241489
0.262488
0.283487
0.304486
0.325485
0.346484
0.367483
0.388482
0.409481
0.43048
0.451479
0.472478
0.493477
0.514476
-0.514476
-0.493477
-0.472478
-0.451479
-0.43048
-0.409481
-0.388482
-0.367483
-0.346484
-0.325485
-0.304486
-0.283487
-0.262488
-0.241489
-0.22049
-0.199491
-0.178492
-0.157493
-0.136494
-0.115495
-0.0944955
-0.0734965
-0.0524975
-0.0314985
-0.0104995
0.0104995
0.0314985
0.0524975
0.0734965
0.0944955
0.115495
0.136494
0.157493
0.178492
0.199491
0.22049
0.241489
0.262488
0.283487
0.304486
0.325485
0.346484
0.367483
0.388482
0.409481
0.43048
0.451479
0.472478
0.493477
0.514476
-0.514378
-0.493383
-0.472388
-0.451393
-0.430398
-0.409403
-0.388408
-0.367413
-0.346418
-0.325423
-0.304428
-0.283433
-0.262438
-0.241443
-0.220448
-0.199453
-0.178458
-0.157463
-0.136468
-0.115473
-0.0944775
-0.0734825
-0.0524875
-0.0314925
-0.0104975
0.0104975
0.0314925
0.0524875
0.0734825
0.0944775
0.115473
0.136468
0.157463
0.178458
0.199453
0.220448
0.241443
0.262438
0.283433
0.304428
0.325423
0.346418
0.367413
0.388408
0.409403
0.430398
0.451393
0.472388
0.493383
0.514378
-0.514183
-0.493196
-0.472209
-0.451222
-0.430234
-0.409247
-0.38826
-0.367273
-0.346286
-0.325299
-0.304312
-0.283325
-0.262338
-0.241351
-0.220364
-0.199377
-0.17839
-0.157403
-0.136416
-0.115429
-0.0944417
-0.0734547
-0.0524676
-0.0314806
-0.0104935
0.0104935
0.0314806
0.0524676
0.0734547
0.0944417
0.115429
0.136416
0.157403
0.17839
0.199377
0.220364
0.241351
0.262338
0.283325
0.304312
0.325299
0.346286
0.367273
0.38826
0.409247
0.430234
0.451222
0.472209
0.493196
0.514183
-0.513891
-0.492916
-0.471941
-0.450966
-0.42999
-0.409015
-0.38804
-0.367065
-0.34609
-0.325115
-0.30414
-0.283164
-0.262189
-0.241214
-0.220239
-0.199264
-0.178289
-0.157314
-0.136338
-0.115363
-0.0943882
-0.073413
-0.0524379
-0.0314627
-0.0104876
0.0104876
0.0314627
0.0524379
0.073413
0.0943882
0.115363
0.136338
0.157314
0.178289
0.199264
0.220239
0.241214
0.262189
0.283164
0.30414
0.325115
0.34609
0.367065
0.38804
0.409015
0.42999
0.450966
0.471941
0.492916
0.513891
-0.513504
-0.492545
-0.471586
-0.450626
-0.429667
-0.408707
-0.387748
-0.366789
-0.345829
-0.32487
-0.303911
-0.282951
-0.261992
-0.241033
-0.220073
-0.199114
-0.178155
-0.157195
-0.136236
-0.115276
-0.0943171
-0.0733578
-0.0523984
-0.031439
-0.0104797
0.0104797
0.031439
0.0523984
0.0733578
0.0943171
0.115276
0.136236
0.157195
0.178155
0.199114
0.220073
0.241033
0.261992
0.282951
0.303911
0.32487
0.345829
0.366789
0.387748
0.408707
0.429667
0.450626
0.471586
0.492545
0.513504
-0.513024
-0.492084
-0.471144
-0.450205
-0.429265
-0.408325
-0.387385
-0.366446
-0.345506
-0.324566
-0.303626
-0.282687
-0.261747
-0.240807
-0.219867
-0.198928
-0.177988
-0.157048
-0.136108
-0.115169
-0.0942289
-0.0732891
-0.0523494
-0.0314096
-0.0104699
0.0104699
0.0314096
0.0523494
0.0732891
0.0942289
0.115169
0.136108
0.157048
0.177988
0.198928
0.219867
0.240807
0.261747
0.282687
0.303626
0.324566
0.345506
0.366446
0.387385
0.408325
0.429265
0.450205
0.471144
0.492084
0.513024
-0.512452
-0.491536
-0.470619
-0.449703
-0.428786
-0.40787
-0.386954
-0.366037
-0.345121
-0.324204
-0.303288
-0.282372
-0.261455
-0.240539
-0.219622
-0.198706
-0.17779
-0.156873
-0.135957
-0.11504
-0.0941239
-0.0732074
-0.052291
-0.0313746
-0.0104582
0.0104582
0.0313746
0.052291
0.0732074
0.0941239
0.11504
0.135957
0.156873
0.17779
0.198706
0.219622
0.240539
0.261455
0.282372
0.303288
0.324204
0.345121
0.366037
0.386954
0.40787
0.428786
0.449703
0.470619
0.491536
0.512452
-0.511791
-0.490902
-0.470012
-0.449123
-0.428234
-0.407344
-0.386455
-0.365565
-0.344676
-0.323786
-0.302897
-0.282007
-0.261118
-0.240229
-0.219339
-0.19845
-0.17756
-0.156671
-0.135781
-0.114892
-0.0940025
-0.0731131
-0.0522236
-0.0313342
-0.0104447
0.0104447
0.0313342
0.0522236
0.0731131
0.0940025
0.114892
0.135781
0.156671
0.17756
0.19845
0.219339
0.240229
0.261118
0.282007
0.302897
0.323786
0.344676
0.365565
0.386455
0.407344
0.428234
0.449123
0.470012
0.490902
0.511791
-0.511044
-0.490185
-0.469326
-0.448468
-0.427609
-0.40675
-0.385891
-0.365032
-0.344173
-0.323314
-0.302455
-0.281596
-0.260737
-0.239878
-0.219019
-0.19816
-0.177301
-0.156442
-0.135583
-0.114724
-0.0938653
-0.0730063
-0.0521474
-0.0312884
-0.0104295
0.0104295
0.0312884
0.0521474
0.0730063
0.0938653
0.114724
0.135583
0.156442
0.177301
0.19816
0.219019
0.239878
0.260737
0.281596
0.302455
0.323314
0.344173
0.365032
0.385891
0.40675
0.427609
0.448468
0.469326
0.490185
0.511044
-0.510214
-0.489389
-0.468564
-0.447739
-0.426914
-0.406089
-0.385264
-0.364439
-0.343614
-0.322789
-0.301964
-0.281139
-0.260313
-0.239488
-0.218663
-0.197838
-0.177013
-0.156188
-0.135363
-0.114538
-0.0937129
-0.0728878
-0.0520627
-0.0312376
-0.0104125
0.0104125
0.0312376
0.0520627
0.0728878
0.0937129
0.114538
0.135363
0.156188
0.177013
0.197838
0.218663
0.239488
0.260313
0.281139
0.301964
0.322789
0.343614
0.364439
0.385264
0.406089
0.426914
0.447739
0.468564
0.489389
0.510214
-0.509305
-0.488517
-0.467729
-0.446941
-0.426153
-0.405365
-0.384577
-0.363789
-0.343001
-0.322213
-0.301425
-0.280637
-0.259849
-0.239062
-0.218274
-0.197486
-0.176698
-0.15591
-0.135122
-0.114334
-0.0935458
-0.0727579
-0.0519699
-0.0311819
-0.010394
0.010394
0.0311819
0.0519699
0.0727579
0.0935458
0.114334
0.135122
0.15591
0.176698
0.197486
0.218274
0.239062
0.259849
0.280637
0.301425
0.322213
0.343001
0.363789
0.384577
0.405365
0.426153
0.446941
0.467729
0.488517
0.509305
-0.50832
-0.487572
-0.466824
-0.446077
-0.425329
-0.404581
-0.383833
-0.363086
-0.342338
-0.32159
-0.300842
-0.280095
-0.259347
-0.238599
-0.217851
-0.197104
-0.176356
-0.155608
-0.13486
-0.114113
-0.0933649
-0.0726171
-0.0518694
-0.0311216
-0.0103739
0.0103739
0.0311216
0.0518694
0.0726171
0.0933649
0.114113
0.13486
0.155608
0.176356
0.197104
0.217851
0.238599
0.259347
0.280095
0.300842
0.32159
0.342338
0.363086
0.383833
0.404581
0.425329
0.446077
0.466824
0.487572
0.50832
-0.507263
-0.486558
-0.465854
-0.445149
-0.424445
-0.40374
-0.383035
-0.362331
-0.341626
-0.320921
-0.300217
-0.279512
-0.258808
-0.238103
-0.217398
-0.196694
-0.175989
-0.155285
-0.13458
-0.113875
-0.0931708
-0.0724661
-0.0517615
-0.0310569
-0.0103523
0.0103523
0.0310569
0.0517615
0.0724661
0.0931708
0.113875
0.13458
0.155285
0.175989
0.196694
0.217398
0.238103
0.258808
0.279512
0.300217
0.320921
0.341626
0.362331
0.383035
0.40374
0.424445
0.445149
0.465854
0.486558
0.507263
-0.506139
-0.48548
-0.464821
-0.444163
-0.423504
-0.402845
-0.382187
-0.361528
-0.340869
-0.32021
-0.299552
-0.278893
-0.258234
-0.237575
-0.216917
-0.196258
-0.175599
-0.15494
-0.134282
-0.113623
-0.0929643
-0.0723056
-0.0516468
-0.0309881
-0.0103294
0.0103294
0.0309881
0.0516468
0.0723056
0.0929643
0.113623
0.134282
0.15494
0.175599
0.196258
0.216917
0.237575
0.258234
0.278893
0.299552
0.32021
0.340869
0.361528
0.382187
0.402845
0.423504
0.444163
0.464821
0.48548
0.506139
-0.504952
-0.484342
-0.463732
-0.443121
-0.422511
-0.401901
-0.38129
-0.36068
-0.34007
-0.319459
-0.298849
-0.278239
-0.257629
-0.237018
-0.216408
-0.195798
-0.175187
-0.154577
-0.133967
-0.113357
-0.0927463
-0.072136
-0.0515257
-0.0309154
-0.0103051
0.0103051
0.0309154
0.0515257
0.072136
0.0927463
0.113357
0.133967
0.154577
0.175187
0.195798
0.216408
0.237018
0.257629
0.278239
0.298849
0.319459
0.34007
0.36068
0.38129
0.401901
0.422511
0.443121
0.463732
0.484342
0.504952
-0.503707
-0.483148
-0.462588
-0.442029
-0.421469
-0.40091
-0.38035
-0.359791
-0.339231
-0.318672
-0.298113
-0.277553
-0.256994
-0.236434
-0.215875
-0.195315
-0.174756
-0.154196
-0.133637
-0.113077
-0.0925177
-0.0719582
-0.0513987
-0.0308392
-0.0102797
0.0102797
0.0308392
0.0513987
0.0719582
0.0925177
0.113077
0.133637
0.154196
0.174756
0.195315
0.215875
0.236434
0.256994
0.277553
0.298113
0.318672
0.339231
0.359791
0.38035
0.40091
0.421469
0.442029
0.462588
0.483148
0.503707
-0.50241
-0.481903
-0.461397
-0.44089
-0.420384
-0.399877
-0.379371
-0.358864
-0.338358
-0.317851
-0.297344
-0.276838
-0.256331
-0.235825
-0.215318
-0.194812
-0.174305
-0.153799
-0.133292
-0.112786
-0.0922793
-0.0717728
-0.0512663
-0.0307598
-0.0102533
0.0102533
0.0307598
0.0512663
0.0717728
0.0922793
0.112786
0.133292
0.153799
0.174305
0.194812
0.215318
0.235825
0.256331
0.276838
0.297344
0.317851
0.338358
0.358864
0.379371
0.399877
0.420384
0.44089
0.461397
0.481903
0.50241
-0.501064
-0.480613
-0.460161
-0.439709
-0.419258
-0.398806
-0.378355
-0.357903
-0.337451
-0.317
-0.296548
-0.276097
-0.255645
-0.235193
-0.214742
-0.19429
-0.173839
-0.153387
-0.132935
-0.112484
-0.0920322
-0.0715806
-0.051129
-0.0306774
-0.0102258
0.0102258
0.0306774
0.051129
0.0715806
0.0920322
0.112484
0.132935
0.153387
0.173839
0.19429
0.214742
0.235193
0.255645
0.276097
0.296548
0.317
0.337451
0.357903
0.378355
0.398806
0.419258
0.439709
0.460161
0.480613
0.501064
-0.499676
-0.479281
-0.458886
-0.438491
-0.418096
-0.397701
-0.377306
-0.356911
-0.336517
-0.316122
-0.295727
-0.275332
-0.254937
-0.234542
-0.214147
-0.193752
-0.173357
-0.152962
-0.132567
-0.112172
-0.0917772
-0.0713823
-0.0509874
-0.0305924
-0.0101975
0.0101975
0.0305924
0.0509874
0.0713823
0.0917772
0.112172
0.132567
0.152962
0.173357
0.193752
0.214147
0.234542
0.254937
0.275332
0.295727
0.316122
0.336517
0.356911
0.377306
0.397701
0.418096
0.438491
0.458886
0.479281
0.499676
-0.498251
-0.477914
-0.457577
-0.437241
-0.416904
-0.396567
-0.37623
-0.355894
-0.335557
-0.31522
-0.294883
-0.274546
-0.25421
-0.233873
-0.213536
-0.193199
-0.172863
-0.152526
-0.132189
-0.111852
-0.0915155
-0.0711787
-0.0508419
-0.0305052
-0.0101684
0.0101684
0.0305052
0.0508419
0.0711787
0.0915155
0.111852
0.132189
0.152526
0.172863
0.193199
0.213536
0.233873
0.25421
0.274546
0.294883
0.31522
0.335557
0.355894
0.37623
0.396567
0.416904
0.437241
0.457577
0.477914
0.498251
-0.496794
-0.476517
-0.45624
-0.435962
-0.415685
-0.395408
-0.37513
-0.354853
-0.334576
-0.314298
-0.294021
-0.273744
-0.253466
-0.233189
-0.212912
-0.192634
-0.172357
-0.15208
-0.131803
-0.111525
-0.0912479
-0.0709706
-0.0506933
-0.030416
-0.0101387
0.0101387
0.030416
0.0506933
0.0709706
0.0912479
0.111525
0.131803
0.15208
0.172357
0.192634
0.212912
0.233189
0.253466
0.273744
0.294021
0.314298
0.334576
0.354853
0.37513
0.395408
0.415685
0.435962
0.45624
0.476517
0.496794
-0.495312
-0.475095
-0.454878
-0.434661
-0.414444
-0.394228
-0.374011
-0.353794
-0.333577
-0.31336
-0.293144
-0.272927
-0.25271
-0.232493
-0.212276
-0.19206
-0.171843
-0.151626
-0.131409
-0.111192
-0.0909756
-0.0707588
-0.050542
-0.0303252
-0.0101084
0.0101084
0.0303252
0.050542
0.0707588
0.0909756
0.111192
0.131409
0.151626
0.171843
0.19206
0.212276
0.232493
0.25271
0.272927
0.293144
0.31336
0.333577
0.353794
0.374011
0.394228
0.414444
0.434661
0.454878
0.475095
0.495312
-0.493809
-0.473653
-0.453498
-0.433342
-0.413187
-0.393031
-0.372876
-0.35272
-0.332565
-0.31241
-0.292254
-0.272099
-0.251943
-0.231788
-0.211632
-0.191477
-0.171321
-0.151166
-0.13101
-0.110855
-0.0906995
-0.0705441
-0.0503886
-0.0302332
-0.0100777
0.0100777
0.0302332
0.0503886
0.0705441
0.0906995
0.110855
0.13101
0.151166
0.171321
0.191477
0.211632
0.231788
0.251943
0.272099
0.292254
0.31241
0.332565
0.35272
0.372876
0.393031
0.413187
0.433342
0.453498
0.473653
0.493809
-0.492291
-0.472198
-0.452104
-0.432011
-0.411917
-0.391824
-0.37173
-0.351637
-0.331543
-0.311449
-0.291356
-0.271262
-0.251169
-0.231075
-0.210982
-0.190888
-0.170795
-0.150701
-0.130608
-0.110514
-0.0904208
-0.0703273
-0.0502338
-0.0301403
-0.0100468
0.0100468
0.0301403
0.0502338
0.0703273
0.0904208
0.110514
0.130608
0.150701
0.170795
0.190888
0.210982
0.231075
0.251169
0.271262
0.291356
0.311449
0.331543
0.351637
0.37173
0.391824
0.411917
0.432011
0.452104
0.472198
0.492291
-0.490765
-0.470734
-0.450702
-0.430671
-0.41064
-0.390609
-0.370578
-0.350546
-0.330515
-0.310484
-0.290453
-0.270421
-0.25039
-0.230359
-0.210328
-0.190297
-0.170265
-0.150234
-0.130203
-0.110172
-0.0901405
-0.0701093
-0.0500781
-0.0300468
-0.0100156
0.0100156
0.0300468
0.0500781
0.0701093
0.0901405
0.110172
0.130203
0.150234
0.170265
0.190297
0.210328
0.230359
0.25039
0.270421
0.290453
0.310484
0.330515
0.350546
0.370578
0.390609
0.41064
0.430671
0.450702
0.470734
0.490765
)
;

boundaryField
{
    left
    {
        type            calculated;
        value           nonuniform List<scalar> 
50
(
-0.50078
-0.502337
-0.503886
-0.50542
-0.506932
-0.508419
-0.509873
-0.51129
-0.512663
-0.513987
-0.515257
-0.516468
-0.517615
-0.518694
-0.519699
-0.520627
-0.521474
-0.522236
-0.52291
-0.523494
-0.523984
-0.524379
-0.524676
-0.524875
-0.524975
-0.524975
-0.524875
-0.524676
-0.524379
-0.523984
-0.523494
-0.52291
-0.522236
-0.521474
-0.520627
-0.519699
-0.518694
-0.517615
-0.516468
-0.515257
-0.513987
-0.512663
-0.51129
-0.509873
-0.508419
-0.506932
-0.50542
-0.503886
-0.502337
-0.50078
)
;
    }
    right
    {
        type            calculated;
        value           nonuniform List<scalar> 
50
(
0.50078
0.502337
0.503886
0.50542
0.506932
0.508419
0.509873
0.51129
0.512663
0.513987
0.515257
0.516468
0.517615
0.518694
0.519699
0.520627
0.521474
0.522236
0.52291
0.523494
0.523984
0.524379
0.524676
0.524875
0.524975
0.524975
0.524875
0.524676
0.524379
0.523984
0.523494
0.52291
0.522236
0.521474
0.520627
0.519699
0.518694
0.517615
0.516468
0.515257
0.513987
0.512663
0.51129
0.509873
0.508419
0.506932
0.50542
0.503886
0.502337
0.50078
)
;
    }
    up
    {
        type            calculated;
        value           nonuniform List<scalar> 
50
(
-0.49
-0.47
-0.45
-0.43
-0.41
-0.39
-0.37
-0.35
-0.33
-0.31
-0.29
-0.27
-0.25
-0.23
-0.21
-0.19
-0.17
-0.15
-0.13
-0.11
-0.09
-0.07
-0.05
-0.03
-0.01
0.01
0.03
0.05
0.07
0.09
0.11
0.13
0.15
0.17
0.19
0.21
0.23
0.25
0.27
0.29
0.31
0.33
0.35
0.37
0.39
0.41
0.43
0.45
0.47
0.49
)
;
    }
    down
    {
        type            calculated;
        value           nonuniform List<scalar> 
50
(
-0.49
-0.47
-0.45
-0.43
-0.41
-0.39
-0.37
-0.35
-0.33
-0.31
-0.29
-0.27
-0.25
-0.23
-0.21
-0.19
-0.17
-0.15
-0.13
-0.11
-0.09
-0.07
-0.05
-0.03
-0.01
0.01
0.03
0.05
0.07
0.09
0.11
0.13
0.15
0.17
0.19
0.21
0.23
0.25
0.27
0.29
0.31
0.33
0.35
0.37
0.39
0.41
0.43
0.45
0.47
0.49
)
;
    }
    frontAndBack
    {
        type            empty;
    }
}


// ************************************************************************* //
