/*--------------------------------*- C++ -*----------------------------------*\
  =========                 |
  \\      /  F ield         | OpenFOAM: The Open Source CFD Toolbox
   \\    /   O peration     | Website:  https://openfoam.org
    \\  /    A nd           | Version:  6
     \\/     M anipulation  |
\*---------------------------------------------------------------------------*/
FoamFile
{
    version     2.0;
    format      ascii;
    class       volVectorField;
    location    "3200";
    object      C;
}
// * * * * * * * * * * * * * * * * * * * * * * * * * * * * * * * * * * * * * //

dimensions      [0 1 0 0 0 0 0];

internalField   nonuniform List<vector> 
3773
(
(0.00162211 0.00258867 0)
(0.000940551 0.00778423 2.58671e-19)
(0.000535287 0.0130095 8.37261e-20)
(0.000340569 0.0182477 -8.34365e-20)
(0.000284834 0.0234897 0)
(0.000308081 0.0287321 0)
(0.000344844 0.0339745 5.1486e-19)
(0.000359853 0.0392167 0)
(0.000357255 0.0444588 -8.22652e-20)
(0.000299737 0.0497004 5.92173e-19)
(0.000196987 0.0549411 0)
(9.40412e-05 0.0601818 0)
(-3.01676e-05 0.0654221 0)
(-0.000217475 0.0706603 8.08793e-20)
(-0.000591306 0.0758869 1.6834e-19)
(-0.00124049 0.0810866 0)
(-0.00213101 0.0862505 2.52152e-19)
(-0.00313025 0.0913955 0)
(-0.00406228 0.0965528 1.61587e-19)
(-0.00481211 0.101739 7.98113e-20)
(-0.00528032 0.106957 0)
(-0.00550264 0.112194 0)
(-0.00567496 0.117434 -7.90229e-20)
(-0.00601007 0.122664 -4.90922e-19)
(-0.00671875 0.127854 -1.69311e-19)
(-0.00790441 0.132956 5.16574e-19)
(-0.00952806 0.137935 2.66276e-19)
(-0.0115455 0.142766 0)
(-0.0138805 0.14745 3.73728e-19)
(-0.0164343 0.152014 4.78111e-19)
(-0.0191811 0.15646 0)
(-0.022104 0.160789 1.01979e-19)
(-0.0251404 0.165037 0)
(0.00570947 0.0025794 0)
(0.0050383 0.00775608 -9.65792e-20)
(0.00464173 0.012962 0)
(0.004455 0.0181804 1.79555e-19)
(0.00440754 0.0234023 8.35433e-20)
(0.00444018 0.0286244 0)
(0.00448826 0.0338462 9.51717e-20)
(0.0045166 0.0390676 -1.7778e-19)
(0.00452887 0.0442887 0)
(0.00448815 0.0495091 -1.7672e-19)
(0.00440336 0.0547286 -1.76028e-19)
(0.00431798 0.0599482 0)
(0.00421116 0.0651675 -1.74804e-19)
(0.00404143 0.0703851 4.17936e-19)
(0.00368694 0.0755915 1.74943e-19)
(0.00306056 0.0807718 0)
(0.00219503 0.0859173 4.35596e-19)
(0.00121962 0.0910446 -1.75825e-19)
(0.000305693 0.0961838 -1.74174e-19)
(-0.000434334 0.101352 0)
(-0.000901986 0.10655 -2.49751e-19)
(-0.00113122 0.111766 7.90466e-20)
(-0.00131228 0.116985 -7.93413e-20)
(-0.00165211 0.122196 0)
(-0.00235567 0.127367 -1.63835e-19)
(-0.00352274 0.132451 8.431e-20)
(-0.00511349 0.137417 0)
(-0.00708307 0.142236 1.79863e-19)
(-0.00935542 0.14691 0)
(-0.0118344 0.151466 1.05211e-19)
(-0.0144966 0.155904 -2.96685e-19)
(-0.0173272 0.160225 1.07893e-19)
(-0.0202669 0.164467 -9.5473e-20)
(0.00979683 0.00257011 -1.77379e-19)
(0.00913607 0.00772787 0)
(0.00874821 0.0129143 0)
(0.00856949 0.0181129 1.80192e-19)
(0.00853032 0.0233148 0)
(0.00857237 0.0285165 -1.79375e-19)
(0.00863178 0.0337176 4.41329e-19)
(0.00867345 0.0389182 -2.73665e-19)
(0.00870061 0.0441182 1.77864e-19)
(0.00867671 0.0493174 0)
(0.0086099 0.0545158 3.53326e-19)
(0.00854209 0.0597143 2.57949e-19)
(0.00845267 0.0649126 0)
(0.00830053 0.0701093 1.75005e-19)
(0.00796541 0.0752955 2.57256e-19)
(0.00736183 0.0804564 0)
(0.00652131 0.0855836 0)
(0.00556975 0.090693 5.16976e-19)
(0.00467394 0.0958142 2.68099e-19)
(0.00394373 0.100963 0)
(0.00347665 0.106142 0)
(0.00324052 0.111338 0)
(0.00305073 0.116536 0)
(0.00270619 0.121727 0)
(0.00200776 0.126878 -1.76434e-19)
(0.000859304 0.131946 0)
(-0.000698532 0.136897 0)
(-0.00262026 0.141705 0)
(-0.00482997 0.146369 0)
(-0.007234 0.150916 1.98384e-19)
(-0.00981169 0.155346 0)
(-0.01255 0.159661 2.03588e-19)
(-0.0153929 0.163896 4.05347e-19)
(0.0138842 0.0025608 9.20173e-20)
(0.0132339 0.00769961 9.72081e-20)
(0.0128547 0.0128666 -1.69348e-19)
(0.012684 0.0180453 -9.64432e-20)
(0.0126532 0.0232271 0)
(0.0127046 0.0284084 -1.67976e-19)
(0.0127754 0.0335889 1.79594e-19)
(0.0128304 0.0387685 -1.79081e-19)
(0.0128725 0.0439475 1.66469e-19)
(0.0128654 0.0491255 8.29811e-20)
(0.0128166 0.0543026 0)
(0.0127664 0.0594799 -3.53226e-19)
(0.0126944 0.0646572 0)
(0.0125598 0.0698331 0)
(0.0122441 0.074999 -1.761e-19)
(0.0116633 0.0801405 0)
(0.0108478 0.0852492 1.77681e-19)
(0.00992013 0.0903408 5.18533e-19)
(0.00904246 0.0954439 -2.56872e-19)
(0.00832209 0.100574 -9.27364e-20)
(0.00785558 0.105733 1.59713e-19)
(0.00761257 0.110909 1.71451e-19)
(0.00741406 0.116087 0)
(0.00706482 0.121257 8.0739e-20)
(0.00637154 0.126389 1.64937e-19)
(0.00524171 0.13144 -2.66293e-19)
(0.0037168 0.136376 1.86457e-19)
(0.00184294 0.141172 0)
(-0.000304092 0.145827 0)
(-0.00263317 0.150365 -1.05172e-19)
(-0.00512629 0.154787 3.91047e-19)
(-0.00777231 0.159095 2.03379e-19)
(-0.0105183 0.163324 0)
(0.0179716 0.00255147 -1.72596e-19)
(0.0173317 0.0076713 1.83002e-19)
(0.0169613 0.0128187 -1.82044e-19)
(0.0167986 0.0179776 1.69431e-19)
(0.0167761 0.0231392 0)
(0.016837 0.0283001 -9.63669e-20)
(0.0169191 0.0334599 2.64356e-19)
(0.0169875 0.0386186 1.79741e-19)
(0.0170445 0.0437764 0)
(0.0170542 0.0489332 -1.66616e-19)
(0.0170234 0.054089 -9.49981e-20)
(0.0169908 0.0592451 0)
(0.0169362 0.0644013 8.23134e-20)
(0.0168193 0.0695564 0)
(0.016523 0.074702 0)
(0.0159651 0.079824 -2.60095e-19)
(0.0151746 0.0849142 4.39491e-19)
(0.0142708 0.0899879 -1.65339e-19)
(0.0134112 0.0950729 2.57701e-19)
(0.0127007 0.100184 1.61956e-19)
(0.0122348 0.105323 0)
(0.0119849 0.110478 0)
(0.0117777 0.115636 0)
(0.0114238 0.120786 0)
(0.0107357 0.125899 0)
(0.00962447 0.130932 0)
(0.00813251 0.135854 0)
(0.00630654 0.140639 -2.82465e-19)
(0.00422219 0.145284 0)
(0.00196808 0.149813 1.98308e-19)
(-0.000440443 0.154227 0)
(-0.00299413 0.158528 0)
(-0.00564332 0.16275 1.07073e-19)
(0.022059 0.00254213 -1.7323e-19)
(0.0214295 0.00764294 0)
(0.0210679 0.0127708 8.5321e-20)
(0.0209133 0.0179098 1.82138e-19)
(0.020899 0.0230512 -1.81737e-19)
(0.0209694 0.0281916 8.46486e-20)
(0.0210629 0.0333306 0)
(0.0211447 0.0384684 0)
(0.0212166 0.0436051 0)
(0.0212432 0.0487405 -1.79322e-19)
(0.0212304 0.053875 0)
(0.0212154 0.0590099 1.65849e-19)
(0.0211783 0.064145 -8.26309e-20)
(0.021079 0.0692791 0)
(0.0208021 0.0744044 -1.77279e-19)
(0.020267 0.0795069 3.43901e-19)
(0.0195016 0.0845786 2.62079e-19)
(0.0186217 0.0896343 0)
(0.0177803 0.0947012 0)
(0.0170796 0.0997935 0)
(0.0166143 0.104913 0)
(0.0163576 0.110048 -3.33482e-19)
(0.0161417 0.115184 2.54011e-19)
(0.0157831 0.120314 0)
(0.0151001 0.125408 -1.7811e-19)
(0.0140076 0.130424 0)
(0.0125486 0.135332 0)
(0.0107705 0.140105 -4.75151e-19)
(0.00874887 0.14474 -2.88069e-19)
(0.00656976 0.149261 0)
(0.00424585 0.153666 0)
(0.00178452 0.157959 0)
(-0.000767812 0.162175 1.1987e-20)
(0.0261464 0.00253277 -1.79903e-19)
(0.0255274 0.00761452 0)
(0.0251745 0.0127228 1.83351e-19)
(0.0250279 0.0178418 -1.70747e-19)
(0.0250221 0.022963 -2.67578e-19)
(0.0251019 0.0280829 -1.82018e-19)
(0.0252068 0.0332012 -3.51136e-19)
(0.025302 0.0383179 -5.43243e-19)
(0.0253888 0.0434334 0)
(0.0254323 0.0485475 -1.79988e-19)
(0.0254376 0.0536606 0)
(0.0254402 0.0587742 0)
(0.0254205 0.0638882 -1.77949e-19)
(0.0253389 0.0690014 -1.77475e-19)
(0.0250814 0.0741063 4.38669e-19)
(0.0245692 0.0791893 -4.40322e-19)
(0.0238288 0.0842424 -1.67225e-19)
(0.0229728 0.0892801 -4.40087e-19)
(0.0221496 0.0943288 0)
(0.0214588 0.0994021 3.38369e-19)
(0.0209941 0.104502 2.54523e-19)
(0.0207305 0.109616 2.54135e-19)
(0.0205059 0.114732 8.09852e-20)
(0.0201427 0.119841 -1.7545e-19)
(0.0194649 0.124916 -8.33145e-20)
(0.018391 0.129915 2.68321e-19)
(0.016965 0.134808 1.20288e-20)
(0.0152349 0.139569 2.82912e-19)
(0.0132759 0.144195 0)
(0.0111718 0.148706 -2.91354e-19)
(0.00893257 0.153104 -1.06558e-19)
(0.00656362 0.15739 -5.00895e-19)
(0.00410817 0.161599 0)
(0.0302338 0.00252338 -1.80549e-19)
(0.0296253 0.00758604 8.64501e-20)
(0.0292812 0.0126747 0)
(0.0291427 0.0177737 0)
(0.0291452 0.0228746 0)
(0.0292345 0.027974 -4.62764e-19)
(0.0293508 0.0330714 9.71605e-20)
(0.0294593 0.0381671 2.66617e-19)
(0.0295612 0.0432613 0)
(0.0296215 0.0483541 -9.63537e-20)
(0.0296448 0.0534459 -3.59859e-19)
(0.0296651 0.0585381 -3.4636e-19)
(0.0296629 0.0636309 3.45147e-19)
(0.029599 0.0687231 -1.78108e-19)
(0.0293609 0.0738076 0)
(0.0288715 0.078871 1.67066e-19)
(0.0281563 0.0839055 0)
(0.0273242 0.0889252 3.57963e-19)
(0.0265192 0.0939556 1.77507e-19)
(0.0258383 0.09901 2.57705e-19)
(0.0253742 0.10409 -8.11491e-20)
(0.0251038 0.109183 0)
(0.0248705 0.114279 -2.56038e-19)
(0.0245026 0.119367 -8.20212e-20)
(0.02383 0.124422 2.62857e-19)
(0.0227748 0.129405 0)
(0.0213818 0.134283 0)
(0.0196996 0.139033 0)
(0.0178034 0.143649 1.04065e-19)
(0.0157743 0.148151 0)
(0.0136197 0.152541 0)
(0.0113432 0.156819 0)
(0.00898463 0.161022 1.06691e-19)
(0.0343212 0.00251398 2.68786e-19)
(0.0337231 0.0075575 0)
(0.0333879 0.0126265 1.84683e-19)
(0.0332575 0.0177055 -2.70187e-19)
(0.0332683 0.0227861 1.83754e-19)
(0.0333671 0.0278649 -4.52424e-19)
(0.0334948 0.0329414 0)
(0.0336168 0.0380161 -1.82448e-19)
(0.0337336 0.043089 -8.49143e-20)
(0.0338109 0.0481604 8.46479e-20)
(0.0338522 0.0532307 0)
(0.0338902 0.0583016 -2.63777e-19)
(0.0339055 0.0633731 -1.67205e-19)
(0.0338592 0.0684443 -2.74144e-19)
(0.0336405 0.0735083 2.62612e-19)
(0.0331741 0.0785521 0)
(0.0324839 0.0835679 3.60696e-19)
(0.0316758 0.0885696 0)
(0.030889 0.0935817 0)
(0.030218 0.0986171 0)
(0.0297545 0.103677 0)
(0.0294773 0.10875 -1.74811e-19)
(0.0292354 0.113824 0)
(0.0288628 0.118892 2.59111e-19)
(0.0281954 0.123928 -9.59435e-20)
(0.0271589 0.128893 -1.83815e-19)
(0.0257989 0.133757 0)
(0.0241646 0.138495 0)
(0.0223312 0.143101 1.04084e-19)
(0.0203772 0.147595 9.3084e-20)
(0.0183073 0.151976 0)
(0.0161231 0.156247 0)
(0.0138615 0.160443 0)
(0.0384086 0.00250456 -3.57686e-19)
(0.0378211 0.00752891 2.734e-19)
(0.0374946 0.0125782 9.87055e-20)
(0.0373723 0.0176371 9.84376e-20)
(0.0373915 0.0226974 0)
(0.0374998 0.0277556 -1.7202e-19)
(0.037639 0.0328112 0)
(0.0377744 0.0378647 -1.83142e-19)
(0.0379062 0.0429163 0)
(0.0380004 0.0479662 -9.70373e-20)
(0.0380598 0.053015 1.69236e-19)
(0.0381154 0.0580645 0)
(0.0381482 0.0631148 -1.79912e-19)
(0.0381196 0.068165 3.46739e-19)
(0.0379204 0.0732085 -1.79705e-19)
(0.0374769 0.0782326 0)
(0.0368118 0.0832297 0)
(0.0360276 0.0882133 -3.60146e-19)
(0.035259 0.0932071 4.40628e-19)
(0.0345979 0.0982234 0)
(0.0341351 0.103263 -2.57511e-19)
(0.0338511 0.108315 1.75505e-19)
(0.0336005 0.113369 -1.76095e-19)
(0.0332233 0.118417 -1.77426e-19)
(0.0325611 0.123433 2.64609e-19)
(0.0315433 0.128381 9.81612e-20)
(0.0302163 0.13323 0)
(0.02863 0.137956 -1.02544e-19)
(0.0268594 0.142553 -2.883e-19)
(0.0249805 0.147037 -1.98134e-19)
(0.0229952 0.15141 0)
(0.0209035 0.155674 2.97217e-19)
(0.0187389 0.159863 -1.06439e-19)
(0.042496 0.00249512 -9.42791e-20)
(0.041919 0.00750025 0)
(0.0416013 0.0125298 0)
(0.0414872 0.0175686 -8.67294e-20)
(0.0415148 0.0226085 0)
(0.0416326 0.027646 2.71128e-19)
(0.0417832 0.0326807 9.82003e-20)
(0.0419321 0.037713 -8.58973e-20)
(0.0420788 0.0427433 2.68878e-19)
(0.04219 0.0477717 0)
(0.0422675 0.052799 0)
(0.0423408 0.0578271 0)
(0.0423911 0.0628559 -1.80579e-19)
(0.0423802 0.067885 0)
(0.0422005 0.072908 0)
(0.0417799 0.0779124 -1.80854e-19)
(0.0411399 0.0828908 4.35562e-19)
(0.0403796 0.0878563 0)
(0.0396293 0.0928317 0)
(0.0389781 0.0978289 -1.20549e-20)
(0.038516 0.102848 0)
(0.0382251 0.10788 -2.58279e-19)
(0.0379659 0.112913 0)
(0.0375841 0.11794 0)
(0.0369272 0.122937 -1.68965e-19)
(0.0359281 0.127867 0)
(0.0346341 0.132702 2.76991e-19)
(0.0330958 0.137416 -1.93228e-19)
(0.0313879 0.142003 4.84604e-19)
(0.0295841 0.146478 -1.98102e-19)
(0.0276836 0.150842 0)
(0.0256843 0.155099 -2.96913e-19)
(0.0236167 0.159282 1.06313e-19)
(0.0465834 0.00248566 0)
(0.046017 0.00747154 -1.87642e-19)
(0.0457081 0.0124812 0)
(0.0456021 0.0174999 -1.86206e-19)
(0.0456381 0.0225194 -2.72722e-19)
(0.0457655 0.0275362 0)
(0.0459275 0.0325499 0)
(0.0460899 0.037561 9.82995e-20)
(0.0462516 0.0425699 -1.71928e-19)
(0.0463797 0.0475768 0)
(0.0464753 0.0525825 2.67971e-19)
(0.0465663 0.0575891 0)
(0.0466341 0.0625966 0)
(0.0466409 0.0676046 0)
(0.0464807 0.0726069 1.80953e-19)
(0.046083 0.0775916 1.81447e-19)
(0.0454682 0.0825512 -3.51975e-19)
(0.0447319 0.0874985 -2.65755e-19)
(0.0439997 0.0924555 1.79838e-19)
(0.0433585 0.0974335 0)
(0.0428971 0.102433 0)
(0.0425994 0.107444 -3.41772e-19)
(0.0423316 0.112456 1.77508e-19)
(0.0419451 0.117462 1.6672e-19)
(0.0412934 0.12244 0)
(0.0403131 0.127353 -1.85229e-19)
(0.0390522 0.132173 -4.78507e-19)
(0.0375618 0.136875 0)
(0.0359168 0.141452 9.21396e-20)
(0.0341881 0.145918 4.89176e-19)
(0.0323723 0.150274 2.00481e-19)
(0.0304655 0.154523 -2.01736e-19)
(0.0284949 0.158699 0)
(0.0506709 0.00247617 0)
(0.0501149 0.00744276 0)
(0.0498149 0.0124326 -1.87427e-19)
(0.049717 0.0174311 0)
(0.0497615 0.0224301 -1.86539e-19)
(0.0498984 0.0274262 0)
(0.0500719 0.0324189 0)
(0.0502477 0.0374087 -1.85267e-19)
(0.0504245 0.0423961 -4.557e-19)
(0.0505695 0.0473814 1.84133e-19)
(0.0506832 0.0523656 8.56591e-20)
(0.0507919 0.0573506 -9.73183e-20)
(0.0508773 0.0623367 -1.81935e-19)
(0.0509018 0.0673235 0)
(0.0507611 0.0723053 0)
(0.0503863 0.0772701 0)
(0.0497966 0.082211 1.70531e-19)
(0.0490843 0.08714 0)
(0.0483704 0.0920785 2.64629e-19)
(0.0477392 0.0970373 0)
(0.0472784 0.102017 -5.21197e-19)
(0.046974 0.107007 3.55274e-19)
(0.0466975 0.111998 9.51457e-20)
(0.0463064 0.116984 3.58935e-19)
(0.04566 0.121942 -1.8222e-19)
(0.0446984 0.126837 0)
(0.0434705 0.131642 -8.86491e-20)
(0.0420282 0.136332 -9.07642e-20)
(0.040446 0.140899 -1.96329e-19)
(0.0387924 0.145356 2.9106e-19)
(0.0370613 0.149704 2.94536e-19)
(0.0352471 0.153945 0)
(0.0333734 0.158115 2.00141e-19)
(0.0547583 0.00246667 -1.78525e-19)
(0.0542129 0.00741391 0)
(0.0539218 0.0123839 0)
(0.053832 0.0173622 9.98349e-20)
(0.053885 0.0223406 -2.74854e-19)
(0.0540314 0.0273159 0)
(0.0542164 0.0322876 3.60943e-19)
(0.0544057 0.0372561 0)
(0.0545975 0.042222 0)
(0.0547594 0.0471857 2.7125e-19)
(0.0548913 0.0521482 0)
(0.0550177 0.0571117 -2.6891e-19)
(0.0551206 0.0620763 0)
(0.0551629 0.0670419 9.70435e-20)
(0.0550416 0.072003 0)
(0.0546899 0.0769479 0)
(0.0541253 0.0818699 1.83141e-19)
(0.053437 0.0867807 0)
(0.0527413 0.0917007 -8.4495e-20)
(0.05212 0.0966403 -3.47178e-19)
(0.05166 0.101599 0)
(0.0513487 0.106569 2.73578e-19)
(0.0510636 0.111539 -3.57909e-19)
(0.050668 0.116504 -9.61116e-20)
(0.0500268 0.121442 2.68222e-19)
(0.0490839 0.12632 -3.72387e-19)
(0.0478892 0.131111 0)
(0.0464949 0.135789 0)
(0.0449755 0.140346 4.84929e-19)
(0.043397 0.144793 0)
(0.0417507 0.149133 1.06111e-19)
(0.040029 0.153366 0)
(0.0382524 0.157529 0)
(0.0588457 0.00245715 0)
(0.0583109 0.00738501 0)
(0.0580287 0.0123351 -1.88842e-19)
(0.0579471 0.0172931 -1.88334e-19)
(0.0580084 0.022251 2.75937e-19)
(0.0581644 0.0272054 1.87634e-19)
(0.0583609 0.032156 0)
(0.0585637 0.0371032 0)
(0.0587705 0.0420475 3.60234e-19)
(0.0589494 0.0469896 -1.85572e-19)
(0.0590994 0.0519304 1.84789e-19)
(0.0592435 0.0568722 -1.96041e-19)
(0.059364 0.0618154 -2.68955e-19)
(0.059424 0.0667597 -2.68057e-19)
(0.0593223 0.0717 1.82874e-19)
(0.0589935 0.0766251 0)
(0.0584541 0.0815282 4.5327e-19)
(0.0577898 0.0864206 3.53743e-19)
(0.0571125 0.0913221 -1.696e-19)
(0.0565011 0.0962424 0)
(0.0560418 0.101181 -5.13369e-19)
(0.0557237 0.10613 0)
(0.05543 0.111079 -5.39072e-19)
(0.0550298 0.116023 0)
(0.0543939 0.120942 -1.8345e-19)
(0.0534698 0.125802 0)
(0.0523081 0.130578 0)
(0.0509618 0.135244 0)
(0.0495053 0.139791 0)
(0.048002 0.144229 -1.0499e-19)
(0.0464405 0.14856 0)
(0.0448113 0.152786 0)
(0.0431318 0.156942 1.99648e-19)
(0.0629332 0.0024476 -1.85949e-19)
(0.062409 0.00735604 8.91943e-20)
(0.0621356 0.0122861 1.00806e-19)
(0.0620622 0.0172238 1.00555e-19)
(0.062132 0.0221611 0)
(0.0622975 0.0270947 1.0021e-19)
(0.0625055 0.0320241 0)
(0.0627218 0.0369499 5.5033e-19)
(0.0629437 0.0418727 0)
(0.0631396 0.046793 -1.86304e-19)
(0.0633077 0.0517121 0)
(0.0634696 0.0566323 -2.7104e-19)
(0.0636076 0.0615539 1.20463e-20)
(0.0636854 0.0664768 0)
(0.0636032 0.0713964 0)
(0.0632973 0.0763016 -2.69795e-19)
(0.0627831 0.0811857 -2.70424e-19)
(0.0621428 0.0860598 0)
(0.0614837 0.0909427 0)
(0.0608824 0.0958436 0)
(0.0604237 0.100762 1.79882e-19)
(0.060099 0.10569 -2.75799e-19)
(0.0597966 0.110618 -1.80435e-19)
(0.0593919 0.115541 -1.81579e-19)
(0.0587612 0.12044 2.70086e-19)
(0.0578558 0.125283 0)
(0.0567272 0.130044 0)
(0.055429 0.134698 1.94033e-19)
(0.0540353 0.139234 0)
(0.0526072 0.143664 -3.83908e-19)
(0.0511306 0.147986 0)
(0.0495939 0.152204 0)
(0.0480115 0.156353 2.9311e-19)
(0.0670206 0.00243803 0)
(0.066507 0.007327 1.91159e-19)
(0.0662425 0.0122371 2.79402e-19)
(0.0661773 0.0171544 0)
(0.0662555 0.0220711 -1.89442e-19)
(0.0664307 0.0269837 0)
(0.0666501 0.0318919 -2.77041e-19)
(0.0668799 0.0367963 2.76285e-19)
(0.0671169 0.0416974 0)
(0.0673298 0.046596 -8.74986e-20)
(0.067516 0.0514933 1.86244e-19)
(0.0676957 0.0563918 -5.44243e-19)
(0.0678513 0.0612918 2.71075e-19)
(0.0679468 0.0661934 8.60269e-20)
(0.0678842 0.0710922 1.84187e-19)
(0.0676013 0.0759773 0)
(0.0671123 0.0808425 4.68228e-19)
(0.066496 0.0856981 5.40138e-19)
(0.0658552 0.0905624 -1.82888e-19)
(0.0652638 0.095444 2.78438e-19)
(0.0648059 0.100342 8.42734e-20)
(0.0644744 0.105249 -1.80598e-19)
(0.0641635 0.110156 -1.81189e-19)
(0.0637541 0.115058 2.6742e-19)
(0.0631288 0.119938 -1.84706e-19)
(0.0622422 0.124763 8.78177e-20)
(0.0611467 0.129509 1.01352e-19)
(0.0598965 0.134151 -3.88398e-19)
(0.0585657 0.138677 -1.96513e-19)
(0.0572128 0.143097 1.97927e-19)
(0.0558209 0.14741 1.05926e-19)
(0.0543769 0.151621 0)
(0.0528915 0.155763 -1.99158e-19)
(0.0711081 0.00242844 0)
(0.070605 0.00729789 -1.91884e-19)
(0.0703494 0.0121879 1.91019e-19)
(0.0702924 0.0170848 1.9053e-19)
(0.0703791 0.0219808 -1.90187e-19)
(0.0705639 0.0268725 1.89864e-19)
(0.0707948 0.0317594 0)
(0.0710382 0.0366423 0)
(0.0712902 0.0415218 0)
(0.0715201 0.0463986 -3.63535e-19)
(0.0717245 0.0512741 0)
(0.0719219 0.0561508 -1.86159e-19)
(0.0720951 0.0610292 0)
(0.0722084 0.0659093 0)
(0.0721653 0.0707872 1.84854e-19)
(0.0719054 0.0756524 -9.85859e-20)
(0.0714416 0.0804985 -1.85475e-19)
(0.0708494 0.0853357 -1.7261e-19)
(0.0702269 0.0901812 -5.38501e-19)
(0.0696454 0.0950434 0)
(0.0691883 0.0999212 6.1661e-19)
(0.06885 0.104807 0)
(0.0685305 0.109693 3.63904e-19)
(0.0681166 0.114574 -9.75445e-20)
(0.0674965 0.119434 0)
(0.0666287 0.124241 -2.76249e-19)
(0.0655663 0.128972 -1.91021e-19)
(0.0643642 0.133602 -1.94367e-19)
(0.0630963 0.138118 1.96563e-19)
(0.0618186 0.142528 0)
(0.0605116 0.146833 0)
(0.0591601 0.151036 -2.94818e-19)
(0.0577718 0.155172 0)
(0.0751956 0.00241882 0)
(0.0747031 0.00726871 0)
(0.0744564 0.0121387 0)
(0.0744076 0.0170151 0)
(0.0745028 0.0218903 -2.80384e-19)
(0.0746971 0.026761 0)
(0.0749396 0.0316266 8.90885e-20)
(0.0751965 0.036488 -1.00886e-19)
(0.0754636 0.0413458 0)
(0.0757105 0.0462007 0)
(0.0759331 0.0510543 0)
(0.0761482 0.0559092 9.94713e-20)
(0.076339 0.0607659 5.46483e-19)
(0.0764701 0.0656246 0)
(0.0764465 0.0704816 0)
(0.0762097 0.0753267 5.45255e-19)
(0.0757711 0.0801537 1.86073e-19)
(0.0752028 0.0849724 1.85252e-19)
(0.0745987 0.0897992 -4.54356e-19)
(0.0740272 0.0946419 -3.53888e-19)
(0.0735708 0.0994993 8.50127e-20)
(0.0732258 0.104364 -1.82132e-19)
(0.0728977 0.109228 -4.50778e-19)
(0.0724792 0.114089 0)
(0.0718645 0.118929 -1.8599e-19)
(0.0710154 0.123719 2.89052e-19)
(0.0699862 0.128434 2.81039e-19)
(0.0688322 0.133052 -2.85798e-19)
(0.0676272 0.137558 0)
(0.0664246 0.141959 1.04937e-19)
(0.0652025 0.146255 0)
(0.0639436 0.15045 -9.41784e-20)
(0.0626525 0.154578 0)
(0.079283 0.00240918 -1.88815e-19)
(0.0788012 0.00723947 -1.02705e-19)
(0.0785634 0.0120893 -1.9251e-19)
(0.0785228 0.0169452 0)
(0.0786265 0.0217997 -2.81527e-19)
(0.0788304 0.0266492 0)
(0.0790845 0.0314935 -1.90997e-19)
(0.0793549 0.0363334 0)
(0.079637 0.0411694 -1.8991e-19)
(0.0799009 0.0460024 -1.8931e-19)
(0.0801417 0.0508341 0)
(0.0803746 0.0556671 -1.87641e-19)
(0.080583 0.0605021 -2.74343e-19)
(0.0807319 0.0653393 2.73316e-19)
(0.0807279 0.0701753 -2.73292e-19)
(0.0805141 0.0750003 -4.59999e-19)
(0.0801006 0.0798081 0)
(0.0795565 0.0846083 -4.58619e-19)
(0.0789706 0.0894163 0)
(0.0784092 0.0942394 0)
(0.0779535 0.0990764 0)
(0.0776017 0.10392 1.70848e-19)
(0.0772651 0.108763 1.83506e-19)
(0.0768421 0.113603 -1.84513e-19)
(0.0762326 0.118423 0)
(0.0754024 0.123195 1.00621e-19)
(0.0744062 0.127895 0)
(0.0733003 0.132501 0)
(0.0721582 0.136996 -1.96665e-19)
(0.0710309 0.141388 -3.83703e-19)
(0.0698936 0.145675 3.86996e-19)
(0.0687274 0.149862 0)
(0.0675334 0.153984 -9.32216e-20)
(0.0833705 0.00239952 1.89551e-19)
(0.0828993 0.00721015 1.0308e-19)
(0.0826704 0.0120398 0)
(0.082638 0.0168751 -2.8317e-19)
(0.0827502 0.0217088 -2.82681e-19)
(0.0829638 0.0265372 0)
(0.0832293 0.0313601 -1.01913e-19)
(0.0835133 0.0361783 1.91276e-19)
(0.0838106 0.0409925 -1.78641e-19)
(0.0840915 0.0458036 0)
(0.0843504 0.0506133 1.77205e-19)
(0.0846011 0.0554245 1.00221e-19)
(0.0848271 0.0602377 0)
(0.0849938 0.0650533 9.94986e-20)
(0.0850094 0.0698683 0)
(0.0848186 0.0746731 0)
(0.0844303 0.0794618 0)
(0.0839102 0.0842433 0)
(0.0833427 0.0890325 -2.72142e-19)
(0.0827913 0.093836 -1.84367e-19)
(0.0823363 0.0986525 -2.69372e-19)
(0.0819779 0.103475 0)
(0.0816326 0.108297 1.84298e-19)
(0.0812051 0.113115 -5.43745e-19)
(0.0806009 0.117915 0)
(0.0797895 0.12267 -1.0088e-19)
(0.0788265 0.127355 0)
(0.0777687 0.131948 -1.94883e-19)
(0.0766895 0.136433 1.04362e-19)
(0.0756374 0.140815 0)
(0.074585 0.145094 -1.87382e-19)
(0.0735114 0.149273 0)
(0.0724146 0.153387 0)
(0.087458 0.00238984 0)
(0.0869974 0.00718076 0)
(0.0867774 0.0119901 -1.03043e-19)
(0.0867532 0.0168049 0)
(0.086874 0.0216176 -9.0599e-20)
(0.0870971 0.0264249 0)
(0.0873743 0.0312264 -2.82822e-19)
(0.0876718 0.0360229 2.82074e-19)
(0.0879841 0.0408153 1.91476e-19)
(0.0882821 0.0456044 0)
(0.0885592 0.050392 -8.89892e-20)
(0.0888277 0.0551812 4.78916e-19)
(0.0890713 0.0599726 0)
(0.0892558 0.0647666 0)
(0.0892909 0.0695606 -9.98193e-20)
(0.0891232 0.0743452 2.75548e-19)
(0.0887602 0.0791146 -2.75835e-19)
(0.0882641 0.0838774 -1.87085e-19)
(0.0877149 0.0886478 1.74052e-19)
(0.0871735 0.0934317 1.85077e-19)
(0.0867193 0.0982276 0)
(0.0863541 0.103029 1.84507e-19)
(0.0860003 0.107829 0)
(0.0855682 0.112627 8.69864e-20)
(0.0849694 0.117407 -1.75918e-19)
(0.0841768 0.122143 6.71877e-19)
(0.0832469 0.126813 1.02231e-19)
(0.0822372 0.131394 1.95059e-19)
(0.0812209 0.135869 0)
(0.0802441 0.140241 0)
(0.0792766 0.144511 -3.98514e-19)
(0.0782956 0.148682 0)
(0.077296 0.152789 -9.29818e-20)
(0.0915454 0.00238012 9.25057e-20)
(0.0910955 0.00715129 1.95629e-19)
(0.0908845 0.0119404 1.82754e-19)
(0.0908685 0.0167345 4.79852e-19)
(0.0909977 0.0215263 0)
(0.0912306 0.0263124 -2.84595e-19)
(0.0915192 0.0310924 0)
(0.0918303 0.0358672 0)
(0.0921578 0.0406376 5.64772e-19)
(0.0924727 0.0454046 -2.81458e-19)
(0.0927681 0.0501702 0)
(0.0930543 0.0549375 0)
(0.0933156 0.0597069 0)
(0.0935179 0.0644793 0)
(0.0935726 0.0692522 1.88298e-19)
(0.0934278 0.0740164 2.76543e-19)
(0.0930901 0.0787666 0)
(0.0926181 0.0835107 -1.75665e-19)
(0.0920872 0.0882621 2.74124e-19)
(0.0915559 0.0930263 0)
(0.0911024 0.0978016 -1.85154e-19)
(0.0907305 0.102581 1.85318e-19)
(0.0903682 0.10736 1.85911e-19)
(0.0899315 0.112137 0)
(0.089338 0.116897 -2.76941e-19)
(0.0885642 0.121615 1.90774e-19)
(0.0876675 0.12627 2.83178e-19)
(0.0867059 0.130838 2.86846e-19)
(0.0857526 0.135303 1.96828e-19)
(0.084851 0.139665 -1.97785e-19)
(0.0839684 0.143926 -9.35727e-20)
(0.0830801 0.14809 0)
(0.0821776 0.152189 0)
(0.0956329 0.00237039 -1.91805e-19)
(0.0951936 0.00712175 1.96402e-19)
(0.0949915 0.0118905 2.87358e-19)
(0.0949838 0.0166639 -1.03597e-19)
(0.0951215 0.0214347 -1.94833e-19)
(0.095364 0.0261996 0)
(0.0956642 0.030958 0)
(0.0959888 0.035711 4.66104e-19)
(0.0963314 0.0404595 1.02563e-19)
(0.0966634 0.0452044 0)
(0.096977 0.0499479 -1.91597e-19)
(0.0972811 0.0546931 2.80037e-19)
(0.0975599 0.0594406 0)
(0.09778 0.0641913 0)
(0.0978543 0.068943 0)
(0.0977326 0.0736869 0)
(0.0974201 0.0784177 0)
(0.0969722 0.0831431 -1.88339e-19)
(0.0964596 0.0878755 0)
(0.0959383 0.09262 -8.72327e-20)
(0.0954856 0.0973746 8.69409e-20)
(0.095107 0.102133 1.8614e-19)
(0.0947361 0.106891 -1.86734e-19)
(0.0942949 0.111646 -9.98261e-20)
(0.0937067 0.116386 0)
(0.0929517 0.121086 1.01675e-19)
(0.0920882 0.125726 -2.83725e-19)
(0.0911747 0.130282 0)
(0.0902843 0.134735 2.89324e-19)
(0.0894581 0.139088 -3.8353e-19)
(0.0886603 0.14334 0)
(0.0878647 0.147496 2.93075e-19)
(0.0870594 0.151588 1.97477e-19)
(0.0997204 0.00236063 -1.92573e-19)
(0.0992917 0.00709213 4.98987e-19)
(0.0990986 0.0118405 -1.20531e-20)
(0.0990991 0.0165931 0)
(0.0992454 0.0213429 -1.95638e-19)
(0.0994975 0.0260865 2.87018e-19)
(0.0998092 0.0308233 1.03516e-19)
(0.100147 0.0355545 -1.94487e-19)
(0.100505 0.040281 0)
(0.100854 0.0450038 0)
(0.101186 0.049725 -2.82572e-19)
(0.101508 0.0544481 0)
(0.101804 0.0591737 0)
(0.102042 0.0639026 -1.77884e-19)
(0.102136 0.068633 1.89728e-19)
(0.102037 0.0733566 0)
(0.10175 0.078068 0)
(0.101326 0.0827746 8.84662e-20)
(0.100832 0.0874879 8.80332e-20)
(0.100321 0.0922126 0)
(0.0998689 0.0969465 8.73411e-20)
(0.0994836 0.101684 -2.86492e-19)
(0.0991041 0.10642 -1.75501e-19)
(0.0986584 0.111154 0)
(0.0980755 0.115873 2.79e-19)
(0.0973394 0.120556 0)
(0.096509 0.12518 -2.84278e-19)
(0.0956436 0.129723 2.87389e-19)
(0.0948162 0.134167 0)
(0.0940652 0.13851 9.28729e-20)
(0.0933524 0.142753 0)
(0.0926495 0.1469 0)
(0.0919414 0.150985 2.89866e-19)
(0.103808 0.00235084 -1.93349e-19)
(0.10339 0.00706244 0)
(0.103206 0.0117903 0)
(0.103214 0.0165222 -1.96748e-19)
(0.103369 0.0212509 -2.88653e-19)
(0.103631 0.0259731 0)
(0.103954 0.0306883 2.87686e-19)
(0.104306 0.0353976 0)
(0.104679 0.040102 0)
(0.105045 0.0448026 0)
(0.105395 0.0495016 0)
(0.105735 0.0542025 0)
(0.106049 0.0589061 0)
(0.106305 0.0636131 0)
(0.106418 0.0683224 0)
(0.106342 0.0730255 0)
(0.10608 0.0777174 0)
(0.105681 0.0824051 -1.00832e-19)
(0.105205 0.0870994 2.77179e-19)
(0.104703 0.0918043 0)
(0.104252 0.0965173 -9.98093e-20)
(0.10386 0.101233 -1.87817e-19)
(0.103472 0.105948 -2.76584e-19)
(0.103022 0.11066 0)
(0.102444 0.11536 -5.60097e-19)
(0.101727 0.120024 9.01782e-20)
(0.10093 0.124633 -1.81872e-19)
(0.100113 0.129164 2.99681e-19)
(0.0993482 0.133596 9.24981e-20)
(0.0986725 0.13793 0)
(0.0980446 0.142163 -1.98791e-19)
(0.0974344 0.146302 0)
(0.0968235 0.15038 0)
(0.107895 0.00234102 -1.00084e-19)
(0.107488 0.00703266 -1.05414e-19)
(0.107313 0.01174 1.97992e-19)
(0.10733 0.016451 9.27562e-20)
(0.107493 0.0211586 0)
(0.107764 0.0258594 0)
(0.108099 0.0305529 1.96642e-19)
(0.108465 0.0352403 0)
(0.108853 0.0399225 0)
(0.109236 0.0446009 2.86338e-19)
(0.109604 0.0492777 1.81978e-19)
(0.109961 0.0539564 -1.81054e-19)
(0.110293 0.0586378 0)
(0.110567 0.063323 -2.9323e-19)
(0.1107 0.0680109 1.91191e-19)
(0.110647 0.0726935 0)
(0.110411 0.077366 0)
(0.110035 0.0820348 4.69657e-19)
(0.109577 0.0867099 0)
(0.109086 0.0913948 -3.6545e-19)
(0.108636 0.0960871 -2.76534e-19)
(0.108237 0.100781 0)
(0.10784 0.105474 -1.89266e-19)
(0.107386 0.110166 -2.78975e-19)
(0.106813 0.114845 -2.93161e-19)
(0.106115 0.119491 -1.92949e-19)
(0.105351 0.124085 0)
(0.104582 0.128602 -1.95968e-19)
(0.10388 0.133024 -2.89592e-19)
(0.10328 0.137348 1.04855e-19)
(0.102737 0.141572 0)
(0.102219 0.145703 -1.98811e-19)
(0.101706 0.149773 -1.96771e-19)
(0.111983 0.00233118 1.00481e-19)
(0.111586 0.00700281 0)
(0.11142 0.0116896 -3.85568e-19)
(0.111445 0.0163797 0)
(0.111617 0.0210661 5.94331e-19)
(0.111898 0.0257454 0)
(0.112244 0.0304172 -1.04768e-19)
(0.112623 0.0350826 1.04522e-19)
(0.113026 0.0397426 0)
(0.113427 0.0443987 0)
(0.113813 0.0490531 1.0345e-19)
(0.114188 0.0537096 0)
(0.114538 0.0583688 1.81044e-19)
(0.114829 0.0630321 -1.92256e-19)
(0.114982 0.0676986 3.71826e-19)
(0.114952 0.0723608 0)
(0.114741 0.0770136 -1.91742e-19)
(0.114389 0.0816634 1.01487e-19)
(0.11395 0.0863194 -1.01125e-19)
(0.113469 0.0909844 2.78245e-19)
(0.113019 0.0956557 0)
(0.112614 0.100328 4.67811e-19)
(0.112209 0.105 0)
(0.111749 0.10967 0)
(0.111182 0.114328 1.02095e-19)
(0.110503 0.118956 0)
(0.109772 0.123535 1.94656e-19)
(0.109051 0.12804 -4.84383e-19)
(0.108412 0.132451 1.97126e-19)
(0.107887 0.136764 0)
(0.107429 0.14098 2.91848e-19)
(0.107004 0.145102 0)
(0.106588 0.149165 0)
(0.11607 0.00232131 0)
(0.115684 0.00697287 -4.94979e-19)
(0.115527 0.0116391 0)
(0.11556 0.0163082 0)
(0.115741 0.0209734 2.92404e-19)
(0.116032 0.0256311 -1.98708e-19)
(0.11639 0.0302811 0)
(0.116782 0.0349245 0)
(0.1172 0.0395623 -1.97253e-19)
(0.117618 0.044196 1.96592e-19)
(0.118022 0.048828 2.75468e-19)
(0.118415 0.0534621 0)
(0.118782 0.0580992 0)
(0.119092 0.0627405 0)
(0.119264 0.0673856 1.92688e-19)
(0.119257 0.0720271 0)
(0.119071 0.0766604 0)
(0.118744 0.0812911 0)
(0.118323 0.0859278 2.80341e-19)
(0.117852 0.0905728 3.80574e-19)
(0.117403 0.0952232 -1.90051e-19)
(0.116991 0.0998742 0)
(0.116577 0.104524 1.01539e-19)
(0.116113 0.109172 -8.98015e-20)
(0.115552 0.113811 3.85726e-19)
(0.114891 0.118421 -1.94072e-19)
(0.114193 0.122983 1.9504e-19)
(0.11352 0.127475 -1.96347e-19)
(0.112945 0.131876 1.04598e-19)
(0.112495 0.136179 9.28396e-20)
(0.112122 0.140386 1.05222e-19)
(0.11179 0.1445 -1.98436e-19)
(0.11147 0.148555 3.80621e-19)
(0.120158 0.00231142 1.96542e-19)
(0.119782 0.00694286 0)
(0.119634 0.0115884 2.00477e-19)
(0.119676 0.0162365 0)
(0.119865 0.0208804 1.87755e-19)
(0.120165 0.0255165 1.99569e-19)
(0.120535 0.0301446 1.99206e-19)
(0.120941 0.0347659 0)
(0.121374 0.0393815 0)
(0.121808 0.0439927 2.90152e-19)
(0.122231 0.0486023 1.9654e-19)
(0.122642 0.0532141 0)
(0.123027 0.0578289 0)
(0.123354 0.0624482 0)
(0.123546 0.0670718 1.93449e-19)
(0.123562 0.0716926 0)
(0.123401 0.0763062 0)
(0.123098 0.0809179 0)
(0.122696 0.0855352 5.7489e-19)
(0.122234 0.0901602 8.95059e-20)
(0.121786 0.0947896 -1.90905e-19)
(0.121367 0.0994189 0)
(0.120945 0.104047 2.8182e-19)
(0.120477 0.108674 0)
(0.119921 0.113292 0)
(0.119279 0.117883 -1.94642e-19)