/*--------------------------------*- C++ -*----------------------------------*\
  =========                 |
  \\      /  F ield         | OpenFOAM: The Open Source CFD Toolbox
   \\    /   O peration     | Website:  https://openfoam.org
    \\  /    A nd           | Version:  6
     \\/     M anipulation  |
\*---------------------------------------------------------------------------*/
FoamFile
{
    version     2.0;
    format      ascii;
    class       volScalarField;
    location    "3200";
    object      Cx;
}
// * * * * * * * * * * * * * * * * * * * * * * * * * * * * * * * * * * * * * //

dimensions      [0 1 0 0 0 0 0];

internalField   nonuniform List<scalar> 
3773
(
0.00162211
0.000940551
0.000535287
0.000340569
0.000284834
0.000308081
0.000344844
0.000359853
0.000357255
0.000299737
0.000196987
9.40412e-05
-3.01676e-05
-0.000217475
-0.000591306
-0.00124049
-0.00213101
-0.00313025
-0.00406228
-0.00481211
-0.00528032
-0.00550264
-0.00567496
-0.00601007
-0.00671875
-0.00790441
-0.00952806
-0.0115455
-0.0138805
-0.0164343
-0.0191811
-0.022104
-0.0251404
0.00570947
0.0050383
0.00464173
0.004455
0.00440754
0.00444018
0.00448826
0.0045166
0.00452887
0.00448815
0.00440336
0.00431798
0.00421116
0.00404143
0.00368694
0.00306056
0.00219503
0.00121962
0.000305693
-0.000434334
-0.000901986
-0.00113122
-0.00131228
-0.00165211
-0.00235567
-0.00352274
-0.00511349
-0.00708307
-0.00935542
-0.0118344
-0.0144966
-0.0173272
-0.0202669
0.00979683
0.00913607
0.00874821
0.00856949
0.00853032
0.00857237
0.00863178
0.00867345
0.00870061
0.00867671
0.0086099
0.00854209
0.00845267
0.00830053
0.00796541
0.00736183
0.00652131
0.00556975
0.00467394
0.00394373
0.00347665
0.00324052
0.00305073
0.00270619
0.00200776
0.000859304
-0.000698532
-0.00262026
-0.00482997
-0.007234
-0.00981169
-0.01255
-0.0153929
0.0138842
0.0132339
0.0128547
0.012684
0.0126532
0.0127046
0.0127754
0.0128304
0.0128725
0.0128654
0.0128166
0.0127664
0.0126944
0.0125598
0.0122441
0.0116633
0.0108478
0.00992013
0.00904246
0.00832209
0.00785558
0.00761257
0.00741406
0.00706482
0.00637154
0.00524171
0.0037168
0.00184294
-0.000304092
-0.00263317
-0.00512629
-0.00777231
-0.0105183
0.0179716
0.0173317
0.0169613
0.0167986
0.0167761
0.016837
0.0169191
0.0169875
0.0170445
0.0170542
0.0170234
0.0169908
0.0169362
0.0168193
0.016523
0.0159651
0.0151746
0.0142708
0.0134112
0.0127007
0.0122348
0.0119849
0.0117777
0.0114238
0.0107357
0.00962447
0.00813251
0.00630654
0.00422219
0.00196808
-0.000440443
-0.00299413
-0.00564332
0.022059
0.0214295
0.0210679
0.0209133
0.020899
0.0209694
0.0210629
0.0211447
0.0212166
0.0212432
0.0212304
0.0212154
0.0211783
0.021079
0.0208021
0.020267
0.0195016
0.0186217
0.0177803
0.0170796
0.0166143
0.0163576
0.0161417
0.0157831
0.0151001
0.0140076
0.0125486
0.0107705
0.00874887
0.00656976
0.00424585
0.00178452
-0.000767812
0.0261464
0.0255274
0.0251745
0.0250279
0.0250221
0.0251019
0.0252068
0.025302
0.0253888
0.0254323
0.0254376
0.0254402
0.0254205
0.0253389
0.0250814
0.0245692
0.0238288
0.0229728
0.0221496
0.0214588
0.0209941
0.0207305
0.0205059
0.0201427
0.0194649
0.018391
0.016965
0.0152349
0.0132759
0.0111718
0.00893257
0.00656362
0.00410817
0.0302338
0.0296253
0.0292812
0.0291427
0.0291452
0.0292345
0.0293508
0.0294593
0.0295612
0.0296215
0.0296448
0.0296651
0.0296629
0.029599
0.0293609
0.0288715
0.0281563
0.0273242
0.0265192
0.0258383
0.0253742
0.0251038
0.0248705
0.0245026
0.02383
0.0227748
0.0213818
0.0196996
0.0178034
0.0157743
0.0136197
0.0113432
0.00898463
0.0343212
0.0337231
0.0333879
0.0332575
0.0332683
0.0333671
0.0334948
0.0336168
0.0337336
0.0338109
0.0338522
0.0338902
0.0339055
0.0338592
0.0336405
0.0331741
0.0324839
0.0316758
0.030889
0.030218
0.0297545
0.0294773
0.0292354
0.0288628
0.0281954
0.0271589
0.0257989
0.0241646
0.0223312
0.0203772
0.0183073
0.0161231
0.0138615
0.0384086
0.0378211
0.0374946
0.0373723
0.0373915
0.0374998
0.037639
0.0377744
0.0379062
0.0380004
0.0380598
0.0381154
0.0381482
0.0381196
0.0379204
0.0374769
0.0368118
0.0360276
0.035259
0.0345979
0.0341351
0.0338511
0.0336005
0.0332233
0.0325611
0.0315433
0.0302163
0.02863
0.0268594
0.0249805
0.0229952
0.0209035
0.0187389
0.042496
0.041919
0.0416013
0.0414872
0.0415148
0.0416326
0.0417832
0.0419321
0.0420788
0.04219
0.0422675
0.0423408
0.0423911
0.0423802
0.0422005
0.0417799
0.0411399
0.0403796
0.0396293
0.0389781
0.038516
0.0382251
0.0379659
0.0375841
0.0369272
0.0359281
0.0346341
0.0330958
0.0313879
0.0295841
0.0276836
0.0256843
0.0236167
0.0465834
0.046017
0.0457081
0.0456021
0.0456381
0.0457655
0.0459275
0.0460899
0.0462516
0.0463797
0.0464753
0.0465663
0.0466341
0.0466409
0.0464807
0.046083
0.0454682
0.0447319
0.0439997
0.0433585
0.0428971
0.0425994
0.0423316
0.0419451
0.0412934
0.0403131
0.0390522
0.0375618
0.0359168
0.0341881
0.0323723
0.0304655
0.0284949
0.0506709
0.0501149
0.0498149
0.049717
0.0497615
0.0498984
0.0500719
0.0502477
0.0504245
0.0505695
0.0506832
0.0507919
0.0508773
0.0509018
0.0507611
0.0503863
0.0497966
0.0490843
0.0483704
0.0477392
0.0472784
0.046974
0.0466975
0.0463064
0.04566
0.0446984
0.0434705
0.0420282
0.040446
0.0387924
0.0370613
0.0352471
0.0333734
0.0547583
0.0542129
0.0539218
0.053832
0.053885
0.0540314
0.0542164
0.0544057
0.0545975
0.0547594
0.0548913
0.0550177
0.0551206
0.0551629
0.0550416
0.0546899
0.0541253
0.053437
0.0527413
0.05212
0.05166
0.0513487
0.0510636
0.050668
0.0500268
0.0490839
0.0478892
0.0464949
0.0449755
0.043397
0.0417507
0.040029
0.0382524
0.0588457
0.0583109
0.0580287
0.0579471
0.0580084
0.0581644
0.0583609
0.0585637
0.0587705
0.0589494
0.0590994
0.0592435
0.059364
0.059424
0.0593223
0.0589935
0.0584541
0.0577898
0.0571125
0.0565011
0.0560418
0.0557237
0.05543
0.0550298
0.0543939
0.0534698
0.0523081
0.0509618
0.0495053
0.048002
0.0464405
0.0448113
0.0431318
0.0629332
0.062409
0.0621356
0.0620622
0.062132
0.0622975
0.0625055
0.0627218
0.0629437
0.0631396
0.0633077
0.0634696
0.0636076
0.0636854
0.0636032
0.0632973
0.0627831
0.0621428
0.0614837
0.0608824
0.0604237
0.060099
0.0597966
0.0593919
0.0587612
0.0578558
0.0567272
0.055429
0.0540353
0.0526072
0.0511306
0.0495939
0.0480115
0.0670206
0.066507
0.0662425
0.0661773
0.0662555
0.0664307
0.0666501
0.0668799
0.0671169
0.0673298
0.067516
0.0676957
0.0678513
0.0679468
0.0678842
0.0676013
0.0671123
0.066496
0.0658552
0.0652638
0.0648059
0.0644744
0.0641635
0.0637541
0.0631288
0.0622422
0.0611467
0.0598965
0.0585657
0.0572128
0.0558209
0.0543769
0.0528915
0.0711081
0.070605
0.0703494
0.0702924
0.0703791
0.0705639
0.0707948
0.0710382
0.0712902
0.0715201
0.0717245
0.0719219
0.0720951
0.0722084
0.0721653
0.0719054
0.0714416
0.0708494
0.0702269
0.0696454
0.0691883
0.06885
0.0685305
0.0681166
0.0674965
0.0666287
0.0655663
0.0643642
0.0630963
0.0618186
0.0605116
0.0591601
0.0577718
0.0751956
0.0747031
0.0744564
0.0744076
0.0745028
0.0746971
0.0749396
0.0751965
0.0754636
0.0757105
0.0759331
0.0761482
0.076339
0.0764701
0.0764465
0.0762097
0.0757711
0.0752028
0.0745987
0.0740272
0.0735708
0.0732258
0.0728977
0.0724792
0.0718645
0.0710154
0.0699862
0.0688322
0.0676272
0.0664246
0.0652025
0.0639436
0.0626525
0.079283
0.0788012
0.0785634
0.0785228
0.0786265
0.0788304
0.0790845
0.0793549
0.079637
0.0799009
0.0801417
0.0803746
0.080583
0.0807319
0.0807279
0.0805141
0.0801006
0.0795565
0.0789706
0.0784092
0.0779535
0.0776017
0.0772651
0.0768421
0.0762326
0.0754024
0.0744062
0.0733003
0.0721582
0.0710309
0.0698936
0.0687274
0.0675334
0.0833705
0.0828993
0.0826704
0.082638
0.0827502
0.0829638
0.0832293
0.0835133
0.0838106
0.0840915
0.0843504
0.0846011
0.0848271
0.0849938
0.0850094
0.0848186
0.0844303
0.0839102
0.0833427
0.0827913
0.0823363
0.0819779
0.0816326
0.0812051
0.0806009
0.0797895
0.0788265
0.0777687
0.0766895
0.0756374
0.074585
0.0735114
0.0724146
0.087458
0.0869974
0.0867774
0.0867532
0.086874
0.0870971
0.0873743
0.0876718
0.0879841
0.0882821
0.0885592
0.0888277
0.0890713
0.0892558
0.0892909
0.0891232
0.0887602
0.0882641
0.0877149
0.0871735
0.0867193
0.0863541
0.0860003
0.0855682
0.0849694
0.0841768
0.0832469
0.0822372
0.0812209
0.0802441
0.0792766
0.0782956
0.077296
0.0915454
0.0910955
0.0908845
0.0908685
0.0909977
0.0912306
0.0915192
0.0918303
0.0921578
0.0924727
0.0927681
0.0930543
0.0933156
0.0935179
0.0935726
0.0934278
0.0930901
0.0926181
0.0920872
0.0915559
0.0911024
0.0907305
0.0903682
0.0899315
0.089338
0.0885642
0.0876675
0.0867059
0.0857526
0.084851
0.0839684
0.0830801
0.0821776
0.0956329
0.0951936
0.0949915
0.0949838
0.0951215
0.095364
0.0956642
0.0959888
0.0963314
0.0966634
0.096977
0.0972811
0.0975599
0.09778
0.0978543
0.0977326
0.0974201
0.0969722
0.0964596
0.0959383
0.0954856
0.095107
0.0947361
0.0942949
0.0937067
0.0929517
0.0920882
0.0911747
0.0902843
0.0894581
0.0886603
0.0878647
0.0870594
0.0997204
0.0992917
0.0990986
0.0990991
0.0992454
0.0994975
0.0998092
0.100147
0.100505
0.100854
0.101186
0.101508
0.101804
0.102042
0.102136
0.102037
0.10175
0.101326
0.100832
0.100321
0.0998689
0.0994836
0.0991041
0.0986584
0.0980755
0.0973394
0.096509
0.0956436
0.0948162
0.0940652
0.0933524
0.0926495
0.0919414
0.103808
0.10339
0.103206
0.103214
0.103369
0.103631
0.103954
0.104306
0.104679
0.105045
0.105395
0.105735
0.106049
0.106305
0.106418
0.106342
0.10608
0.105681
0.105205
0.104703
0.104252
0.10386
0.103472
0.103022
0.102444
0.101727
0.10093
0.100113
0.0993482
0.0986725
0.0980446
0.0974344
0.0968235
0.107895
0.107488
0.107313
0.10733
0.107493
0.107764
0.108099
0.108465
0.108853
0.109236
0.109604
0.109961
0.110293
0.110567
0.1107
0.110647
0.110411
0.110035
0.109577
0.109086
0.108636
0.108237
0.10784
0.107386
0.106813
0.106115
0.105351
0.104582
0.10388
0.10328
0.102737
0.102219
0.101706
0.111983
0.111586
0.11142
0.111445
0.111617
0.111898
0.112244
0.112623
0.113026
0.113427
0.113813
0.114188
0.114538
0.114829
0.114982
0.114952
0.114741
0.114389
0.11395
0.113469
0.113019
0.112614
0.112209
0.111749
0.111182
0.110503
0.109772
0.109051
0.108412
0.107887
0.107429
0.107004
0.106588
0.11607
0.115684
0.115527
0.11556
0.115741
0.116032
0.11639
0.116782
0.1172
0.117618
0.118022
0.118415
0.118782
0.119092
0.119264
0.119257
0.119071
0.118744
0.118323
0.117852
0.117403
0.116991
0.116577
0.116113
0.115552
0.114891
0.114193
0.11352
0.112945
0.112495
0.112122
0.11179
0.11147
0.120158
0.119782
0.119634
0.119676
0.119865
0.120165
0.120535
0.120941
0.121374
0.121808
0.122231
0.122642
0.123027
0.123354
0.123546
0.123562
0.123401
0.123098
0.122696
0.122234
0.121786
0.121367
0.120945
0.120477
0.119921
0.119279
0.118614
0.117989
0.117477
0.117102
0.116814
0.116575
0.116353
0.124245
0.123881
0.123741
0.123791
0.123989
0.124299
0.12468
0.125099
0.125548
0.125999
0.12644
0.126869
0.127271
0.127616
0.127828
0.127867
0.127732
0.127452
0.127068
0.126617
0.12617
0.125744
0.125314
0.124841
0.12429
0.123667
0.123035
0.122459
0.122009
0.12171
0.121507
0.12136
0.121235
0.128333
0.127979
0.127848
0.127907
0.128113
0.128432
0.128825
0.129258
0.129722
0.13019
0.130649
0.131096
0.131516
0.131879
0.13211
0.132172
0.132062
0.131807
0.131441
0.131
0.130553
0.130121
0.129682
0.129204
0.128659
0.128054
0.127456
0.126928
0.126541
0.126317
0.126199
0.126145
0.126118
0.13242
0.132077
0.131955
0.132022
0.132236
0.132566
0.13297
0.133417
0.133896
0.134381
0.134858
0.135323
0.13576
0.136141
0.136392
0.136477
0.136392
0.136161
0.135814
0.135383
0.134937
0.134498
0.13405
0.133568
0.133028
0.132442
0.131877
0.131397
0.131073
0.130925
0.130891
0.13093
0.131
0.136508
0.136175
0.136062
0.136137
0.13636
0.136699
0.137115
0.137575
0.138069
0.138572
0.139068
0.13955
0.140005
0.140403
0.140674
0.140782
0.140722
0.140515
0.140186
0.139765
0.13932
0.138875
0.138418
0.137932
0.137397
0.13683
0.136298
0.135866
0.135605
0.135532
0.135584
0.135715
0.135882
0.140595
0.140273
0.14017
0.140253
0.140484
0.140833
0.14126
0.141734
0.142243
0.142763
0.143276
0.143776
0.144249
0.144666
0.144955
0.145087
0.145052
0.144869
0.144559
0.144148
0.143704
0.143251
0.142786
0.142295
0.141765
0.141218
0.140719
0.140335
0.140137
0.140139
0.140276
0.1405
0.140764
0.144683
0.144371
0.144277
0.144368
0.144608
0.144966
0.145405
0.145893
0.146417
0.146953
0.147485
0.148003
0.148494
0.148928
0.149237
0.149392
0.149382
0.149224
0.148931
0.14853
0.148087
0.147628
0.147154
0.146658
0.146134
0.145605
0.14514
0.144804
0.144669
0.144746
0.144968
0.145285
0.145646
0.14877
0.148469
0.148384
0.148483
0.148732
0.1491
0.14955
0.150051
0.15059
0.151144
0.151694
0.15223
0.152738
0.15319
0.153519
0.153697
0.153712
0.153578
0.153304
0.152913
0.15247
0.152004
0.151522
0.151022
0.150503
0.149992
0.14956
0.149272
0.149201
0.149353
0.149659
0.150069
0.150528
0.152858
0.152567
0.152491
0.152598
0.152855
0.153233
0.153695
0.15421
0.154764
0.155335
0.155903
0.156456
0.156982
0.157452
0.1578
0.158001
0.158042
0.157931
0.157676
0.157295
0.156853
0.15638
0.155889
0.155385
0.154871
0.15438
0.15398
0.153741
0.153732
0.15396
0.154351
0.154853
0.155409
0.156945
0.156666
0.156598
0.156714
0.156979
0.157366
0.15784
0.158368
0.158937
0.159525
0.160112
0.160683
0.161226
0.161714
0.162082
0.162306
0.162372
0.162285
0.162048
0.161677
0.161236
0.160756
0.160257
0.159748
0.159239
0.158767
0.1584
0.158209
0.158263
0.158566
0.159042
0.159637
0.16029
0.161033
0.160764
0.160705
0.160829
0.161103
0.1615
0.161985
0.162526
0.163111
0.163716
0.16432
0.164909
0.16547
0.165975
0.166363
0.16661
0.166701
0.166639
0.16642
0.166059
0.165618
0.165132
0.164624
0.16411
0.163607
0.163153
0.16282
0.162677
0.162794
0.163172
0.163733
0.164421
0.165171
0.16512
0.164862
0.164812
0.164944
0.165227
0.165633
0.166129
0.166685
0.167284
0.167906
0.168529
0.169136
0.169714
0.170237
0.170644
0.170914
0.171031
0.170992
0.170791
0.17044
0.170001
0.169508
0.168991
0.168473
0.167975
0.16754
0.16724
0.167144
0.167324
0.167778
0.168424
0.169204
0.170052
0.169208
0.16896
0.168919
0.169059
0.16935
0.169766
0.170274
0.170843
0.171457
0.172096
0.172737
0.173362
0.173958
0.174498
0.174925
0.175218
0.17536
0.175345
0.175163
0.174822
0.174383
0.173883
0.173358
0.172835
0.172342
0.171926
0.171659
0.171612
0.171855
0.172383
0.173114
0.173987
0.174932
0.173295
0.173058
0.173025
0.173174
0.173474
0.173899
0.174419
0.175001
0.175631
0.176286
0.176945
0.177588
0.178201
0.17876
0.179206
0.179522
0.179689
0.179698
0.179534
0.179203
0.178764
0.178258
0.177724
0.177196
0.176709
0.176311
0.176078
0.176079
0.176384
0.176988
0.177804
0.17877
0.179811
0.177382
0.177156
0.177132
0.177289
0.177597
0.178032
0.178563
0.179159
0.179804
0.180476
0.181154
0.181813
0.182445
0.183021
0.183487
0.183825
0.184017
0.184051
0.183905
0.183584
0.183146
0.182633
0.18209
0.181558
0.181076
0.180697
0.180496
0.180545
0.180914
0.181593
0.182494
0.183552
0.184691
0.18147
0.181254
0.181239
0.181404
0.18172
0.182165
0.182708
0.183317
0.183976
0.184666
0.185361
0.186039
0.186688
0.187282
0.187767
0.188129
0.188346
0.188403
0.188275
0.187964
0.187527
0.187007
0.186456
0.185919
0.185442
0.185082
0.184914
0.185011
0.185443
0.186197
0.187182
0.188333
0.189569
0.185557
0.185352
0.185346
0.185519
0.185844
0.186298
0.186852
0.187474
0.188149
0.188856
0.189569
0.190264
0.190931
0.191542
0.192047
0.192432
0.192674
0.192755
0.192646
0.192344
0.191908
0.191381
0.190821
0.190279
0.189808
0.189466
0.189332
0.189477
0.189971
0.190801
0.191871
0.193114
0.194447
0.189645
0.18945
0.189453
0.189634
0.189967
0.19043
0.190996
0.191632
0.192322
0.193045
0.193777
0.194489
0.195173
0.195803
0.196327
0.196734
0.197002
0.197107
0.197016
0.196724
0.196288
0.195754
0.195186
0.19464
0.194173
0.19385
0.193749
0.193942
0.194499
0.195404
0.196559
0.197894
0.199325
0.193732
0.193547
0.193559
0.193749
0.19409
0.194563
0.19514
0.195789
0.196494
0.197234
0.197984
0.198714
0.199416
0.200063
0.200606
0.201037
0.201329
0.201458
0.201385
0.201104
0.200668
0.200128
0.19955
0.198999
0.198538
0.198234
0.198165
0.198406
0.199026
0.200006
0.201246
0.202674
0.204201
0.197819
0.197645
0.197666
0.197863
0.198213
0.198695
0.199284
0.199947
0.200666
0.201423
0.202191
0.202939
0.203658
0.204322
0.204885
0.205339
0.205656
0.205809
0.205754
0.205483
0.205048
0.2045
0.203914
0.203359
0.202902
0.202617
0.202581
0.20287
0.203553
0.204608
0.205932
0.207453
0.209077
-0.028378
-0.0318026
-0.0352559
-0.0387033
-0.0421142
-0.0454357
-0.048625
-0.0516434
-0.0544287
-0.0568512
-0.0587815
-0.060115
-0.0607118
-0.0605125
-0.0596157
-0.0581703
-0.0562881
-0.0540828
-0.0516225
-0.0489973
-0.046266
-0.0434463
-0.0405921
-0.0234075
-0.0267355
-0.0300914
-0.0334419
-0.0367576
-0.0399862
-0.0430861
-0.0460192
-0.0487247
-0.0510756
-0.052945
-0.0542306
-0.0547951
-0.0545807
-0.0536838
-0.05225
-0.0503895
-0.048213
-0.0457875
-0.0432018
-0.0405128
-0.037738
-0.034931
-0.0184365
-0.0216677
-0.0249261
-0.0281798
-0.0314
-0.0345356
-0.037546
-0.0403937
-0.0430193
-0.0452986
-0.047107
-0.0483445
-0.0488767
-0.0486472
-0.04775
-0.0463278
-0.0444888
-0.0423412
-0.0399505
-0.0374041
-0.0347573
-0.0320274
-0.0292675
-0.0134649
-0.0165992
-0.0197601
-0.0229167
-0.0260415
-0.029084
-0.0320047
-0.034767
-0.0373126
-0.0395202
-0.0412674
-0.0424568
-0.0429566
-0.0427118
-0.0418144
-0.0404036
-0.0385861
-0.0364673
-0.0341113
-0.0316042
-0.0289995
-0.0263145
-0.0236016
-0.00849276
-0.01153
-0.0145933
-0.0176528
-0.0206821
-0.0236313
-0.0264623
-0.029139
-0.0316046
-0.0337403
-0.0354263
-0.0365675
-0.0370347
-0.0367746
-0.0358769
-0.0344775
-0.0326814
-0.0305913
-0.0282699
-0.025802
-0.0232395
-0.0205993
-0.0179333
-0.00352004
-0.00646017
-0.00942572
-0.012388
-0.0153216
-0.0181775
-0.0209188
-0.0235098
-0.0258951
-0.0279589
-0.0295836
-0.0306765
-0.0311112
-0.0308356
-0.0299375
-0.0285494
-0.0267746
-0.0247132
-0.0224263
-0.0199977
-0.0174771
-0.0148816
-0.0122626
0.00145322
-0.00138972
-0.00425741
-0.00712243
-0.00996025
-0.0127227
-0.0153741
-0.0178793
-0.0201844
-0.0221761
-0.0237394
-0.0247839
-0.0251858
-0.0248948
-0.0239962
-0.0226193
-0.0208658
-0.018833
-0.0165806
-0.014191
-0.0117124
-0.00916164
-0.00658944
0.00642693
0.00368121
0.000911376
-0.00185632
-0.00459836
-0.00726734
-0.00982879
-0.0122483
-0.014473
-0.0163927
-0.0178946
-0.0188906
-0.0192599
-0.0189534
-0.0180542
-0.0166886
-0.0149564
-0.0129522
-0.0107342
-0.00838382
-0.00594725
-0.00344116
-0.000915831
0.0114011
0.0087526
0.00608062
0.00341022
0.000763957
-0.00181159
-0.00428313
-0.00661687
-0.00876132
-0.010609
-0.0120494
-0.0129971
-0.0133337
-0.0130117
-0.0121121
-0.0107577
-0.00904681
-0.00707125
-0.00488789
-0.00257665
-0.00018213
0.00227919
0.00475758
0.0163758
0.0138246
0.0112505
0.00867748
0.00612707
0.00364503
0.00126347
-0.000984436
-0.00304852
-0.00482406
-0.00620301
-0.00710226
-0.00740613
-0.00706862
-0.00616848
-0.00482537
-0.0031357
-0.00118876
0.000960096
0.00323218
0.00558468
0.00800127
0.0104327
0.021351
0.0188971
0.0164211
0.0139455
0.0114911
0.00910265
0.00681118
0.0046492
0.00266558
0.00096225
-0.000355127
-0.00120584
-0.00147688
-0.00112376
-0.000223025
0.00110893
0.0027774
0.0046958
0.00681021
0.0090432
0.0113537
0.0137256
0.0161103
0.0263265
0.02397
0.0215919
0.0192137
0.0168552
0.0145603
0.0123588
0.0102827
0.00837949
0.00674831
0.00549243
0.00469018
0.00445189
0.00482055
0.00572179
0.0070425
0.00868969
0.0105795
0.0126593
0.0148531
0.0171216
0.0194487
0.0217864
0.0313025
0.0290431
0.0267629
0.0244821
0.0222193
0.0200179
0.0179064
0.0159161
0.0140932
0.012534
0.0113396
0.0105857
0.0103801
0.0107642
0.0116658
0.0129752
0.014601
0.016462
0.0185072
0.0206617
0.022888
0.0251702
0.0274607
0.0362787
0.0341166
0.0319342
0.0297507
0.0275836
0.0254756
0.023454
0.0215494
0.0198068
0.0183197
0.0171866
0.016481
0.016308
0.0167074
0.0176094
0.0189073
0.0205116
0.0223438
0.0243543
0.0264694
0.0286534
0.0308906
0.033134
0.0412553
0.0391903
0.0371056
0.0350193
0.0329479
0.0309332
0.0290014
0.0271825
0.02552
0.0241047
0.0230329
0.0223755
0.022235
0.0226497
0.0235519
0.0248383
0.026421
0.0282242
0.0301998
0.0322754
0.034417
0.0366091
0.0388051
0.0462322
0.0442641
0.0422771
0.0402878
0.038312
0.0363905
0.0345483
0.0328149
0.0312324
0.0298889
0.0288782
0.0282689
0.0281607
0.0285905
0.0294928
0.0307675
0.0323285
0.0341026
0.0360431
0.038079
0.0401781
0.0423249
0.0444734
0.0512095
0.0493383
0.0474488
0.0455566
0.0436762
0.0418479
0.0400953
0.0384474
0.0369449
0.0356731
0.0347235
0.0341622
0.0340863
0.0345311
0.0354334
0.0366964
0.0382355
0.0399804
0.0418859
0.043882
0.0459384
0.0480398
0.0501408
0.0561868
0.0544124
0.0526203
0.0508249
0.0490398
0.0473045
0.0456413
0.0440787
0.042656
0.0414557
0.040567
0.0400535
0.0400097
0.0404694
0.0413714
0.0426224
0.0441395
0.045855
0.0477252
0.0496813
0.0516948
0.0537506
0.0558038
0.0611645
0.0594866
0.0577916
0.0560928
0.0544029
0.0527602
0.0511863
0.0497087
0.0483655
0.0472366
0.0464084
0.0459426
0.0459305
0.0464048
0.0473065
0.0485452
0.05004
0.0517259
0.0535605
0.0554763
0.0574468
0.0594567
0.0614618
0.0661424
0.0645608
0.062963
0.0613607
0.0597656
0.0582156
0.0567308
0.0553381
0.0540744
0.0530166
0.052249
0.0518306
0.0518503
0.0523391
0.0532401
0.0544665
0.0559389
0.057595
0.0593939
0.0612694
0.0631965
0.0651604
0.0671174
0.0711203
0.0696348
0.0681337
0.0666276
0.0651272
0.0636695
0.0622734
0.0609653
0.0597807
0.0587938
0.0580864
0.0577151
0.0577662
0.0582691
0.0591692
0.0603829
0.0618326
0.0634586
0.0652213
0.0670561
0.0689397
0.0708573
0.0727657
0.0760985
0.074709
0.0733045
0.0718944
0.0704885
0.0691229
0.0678155
0.0665918
0.0654862
0.06457
0.0639226
0.0635983
0.0636806
0.0641974
0.0650965
0.0662973
0.0677241
0.0693197
0.0710463
0.0728402
0.07468
0.076551
0.0784107
0.0810765
0.0797825
0.0784742
0.0771597
0.075848
0.0745742
0.0733549
0.0722153
0.0711883
0.0703423
0.0697545
0.0694768
0.0695899
0.0701203
0.0710179
0.0722054
0.0736088
0.0751738
0.0768637
0.0786163
0.0804119
0.082236
0.0840466
0.0860547
0.0848559
0.0836433
0.0824241
0.081206
0.0800235
0.078892
0.077836
0.0768871
0.076111
0.0755824
0.0753507
0.0754942
0.0760377
0.0769333
0.0781072
0.0794868
0.0810206
0.0826735
0.0843843
0.0861353
0.0879121
0.0896731
0.0910328
0.0899289
0.0888118
0.0876876
0.0865629
0.0854715
0.0844276
0.083455
0.0825839
0.0818774
0.0814077
0.0812219
0.0813954
0.0819518
0.0828453
0.0840052
0.0853607
0.0868632
0.0884787
0.0901475
0.0918537
0.0935828
0.095294
0.0960108
0.0950012
0.0939792
0.0929493
0.0919176
0.0909167
0.0899597
0.0890699
0.0882761
0.0876386
0.0872272
0.0870867
0.0872898
0.0878585
0.0887492
0.0898945
0.0912255
0.092696
0.0942736
0.0958999
0.0975607
0.0992416
0.100902
0.100989
0.100073
0.0991461
0.0982105
0.0972713
0.0963607
0.0954904
0.0946831
0.0939663
0.0933976
0.0930443
0.0929488
0.0931811
0.0937618
0.0946495
0.09578
0.0970861
0.0985244
0.100064
0.101647
0.103262
0.104895
0.106505
0.105967
0.105145
0.104312
0.10347
0.102623
0.101802
0.101018
0.100293
0.0996523
0.0991517
0.098856
0.098805
0.0990661
0.0996583
0.100542
0.101658
0.102938
0.104344
0.105845
0.107385
0.108954
0.110538
0.112097
0.110944
0.110215
0.109475
0.108726
0.107971
0.107239
0.10654
0.105896
0.105331
0.104898
0.104659
0.104652
0.104941
0.105544
0.106424
0.107523
0.108777
0.110149
0.111611
0.113107
0.114629
0.116163
0.11767
0.115921
0.115284
0.114638
0.113981
0.113316
0.112672
0.112058
0.111495
0.111005
0.110639
0.110456
0.110491
0.110808
0.11142
0.112295
0.113378
0.114606
0.115943
0.117365
0.118816
0.120291
0.121775
0.12323
0.120898
0.120353
0.119798
0.119233
0.118658
0.118102
0.117572
0.117088
0.116673
0.116372
0.116245
0.116323
0.116666
0.117288
0.118157
0.119222
0.120423
0.121726
0.123107
0.124513
0.125939
0.127372
0.128774
0.125875
0.12542
0.124957
0.124482
0.123996
0.123527
0.123081
0.122676
0.122334
0.122099
0.122026
0.122146
0.122515
0.123146
0.124008
0.125055
0.126227
0.127495
0.128835
0.130195
0.131572
0.132954
0.134302
0.13085
0.130486
0.130113
0.129729
0.129331
0.128948
0.128584
0.128258
0.127989
0.127818
0.127799
0.127959
0.128353
0.128992
0.129847
0.130875
0.132019
0.13325
0.134547
0.135861
0.137189
0.138518
0.139812
0.135826
0.13555
0.135267
0.134972
0.134662
0.134364
0.134081
0.133832
0.133635
0.133527
0.133561
0.133761
0.134178
0.134824
0.135671
0.136679
0.137793
0.138987
0.140241
0.141507
0.142785
0.144061
0.145299
0.1408
0.140613
0.140418
0.14021
0.139987
0.139772
0.13957
0.139397
0.13927
0.139225
0.13931
0.139548
0.139989
0.14064
0.141478
0.142465
0.143547
0.144703
0.145913
0.147131
0.148357
0.149579
0.150761
0.145774
0.145674
0.145567
0.145446
0.145308
0.145176
0.145053
0.144955
0.144898
0.144914
0.14505
0.145326
0.145788
0.146444
0.147272
0.148237
0.149288
0.150405
0.15157
0.152738
0.153912
0.155079
0.156204
0.150747
0.150733
0.150712
0.150677
0.150623
0.150573
0.150528
0.150504
0.150515
0.150591
0.150776
0.151089
0.151572
0.152231
0.153048
0.15399
0.155008
0.156085
0.157204
0.158321
0.159442
0.160553
0.16162
0.15572
0.15579
0.155854
0.155904
0.155932
0.155963
0.155995
0.156043
0.156122
0.156257
0.15649
0.156837
0.15734
0.158002
0.158806
0.159724
0.160708
0.161743
0.162815
0.163881
0.164947
0.166002
0.16701
0.160691
0.160844
0.160992
0.161125
0.161235
0.161345
0.161452
0.161572
0.161716
0.161908
0.162188
0.16257
0.16309
0.163753
0.164543
0.165436
0.166384
0.167378
0.168402
0.169415
0.170425
0.171421
0.17237
0.165661
0.165896
0.166127
0.166341
0.166531
0.166719
0.1669
0.167089
0.167297
0.167545
0.167871
0.168284
0.168821
0.169484
0.170259
0.171124
0.172036
0.172985
0.17396
0.174919
0.175873
0.17681
0.177697
0.17063
0.170946
0.171257
0.171552
0.17182
0.172084
0.172337
0.172595
0.172865
0.173168
0.173537
0.173981
0.174534
0.175194
0.175952
0.17679
0.177664
0.178568
0.179492
0.180396
0.181292
0.182168
0.182993
0.175598
0.175992
0.176383
0.176756
0.177101
0.177439
0.177763
0.178087
0.178419
0.178774
0.179185
0.179658
0.180224
0.180881
0.181621
0.182429
0.183263
0.184121
0.184992
0.185839
0.186676
0.18749
0.188251
0.180565
0.181036
0.181504
0.181954
0.182374
0.182785
0.183178
0.183567
0.183958
0.184364
0.184815
0.185315
0.185893
0.186545
0.187265
0.188042
0.188835
0.189645
0.190463
0.191252
0.192028
0.192779
0.193475
0.18553
0.186076
0.18662
0.187144
0.187638
0.188119
0.188579
0.189031
0.189479
0.189934
0.190424
0.19095
0.191537
0.192182
0.192881
0.193625
0.194375
0.195135
0.195898
0.196627
0.197341
0.198028
0.198657
0.190494
0.191113
0.191731
0.192328
0.192893
0.193443
0.193969
0.194482
0.194985
0.195487
0.196013
0.196563
0.197159
0.197795
0.198471
0.19918
0.199886
0.200595
0.2013
0.201969
0.202619
0.20324
0.203802
0.195456
0.196147
0.196836
0.197505
0.19814
0.198757
0.199346
0.199918
0.200475
0.201022
0.201583
0.202155
0.202757
0.203383
0.204033
0.204706
0.205367
0.206023
0.20667
0.207276
0.207862
0.208415
0.208907
0.200416
0.201176
0.201936
0.202674
0.203376
0.204058
0.204708
0.205336
0.205944
0.206535
0.207128
0.207719
0.208326
0.208939
0.209563
0.210197
0.21081
0.211411
0.211999
0.21254
0.213059
0.213543
0.213965
0.205374
0.206202
0.207029
0.207833
0.2086
0.209345
0.210053
0.210736
0.211394
0.212025
0.212648
0.213256
0.213865
0.214463
0.215058
0.215652
0.216215
0.216759
0.217285
0.21776
0.21821
0.218624
0.218973
0.210331
0.211223
0.212115
0.212984
0.213814
0.214619
0.215384
0.216119
0.216823
0.217492
0.218143
0.218766
0.219374
0.219956
0.220519
0.221071
0.221582
0.222068
0.22253
0.222937
0.223317
0.223658
0.223933
-0.0377864
-0.0350686
-0.0324125
-0.0297983
-0.0271924
-0.0246095
-0.0220428
-0.0194594
-0.0168294
-0.0141276
-0.011338
-0.00842359
-0.00538011
-0.00216833
0.00119975
0.00474004
0.00849651
0.0124063
0.0165131
0.0208109
0.0252261
-0.0321683
-0.0294903
-0.0268766
-0.0243071
-0.0217495
-0.019219
-0.0167079
-0.0141839
-0.0116161
-0.00897581
-0.0062427
-0.00337522
-0.000365911
0.00282118
0.00616968
0.00969182
0.013428
0.0173151
0.0213941
0.0256561
0.0300254
-0.0265479
-0.0239098
-0.0213385
-0.0188139
-0.0163048
-0.0138268
-0.0113715
-0.008907
-0.00640149
-0.00382273
-0.00114629
0.00167417
0.0046492
0.0078115
0.0111403
0.0146442
0.01836
0.0222242
0.0262753
0.0305014
0.0348248
-0.0209251
-0.018327
-0.0157984
-0.0133188
-0.0108582
-0.00843288
-0.00603342
-0.00362853
-0.00118544
0.00133164
0.00395129
0.00672461
0.00966526
0.0128027
0.0161117
0.0195972
0.0232925
0.0271337
0.0311569
0.035347
0.0396242
-0.0153
-0.012742
-0.0102561
-0.00782167
-0.00540973
-0.00303715
-0.000693675
0.00165149
0.00403203
0.00648731
0.00905006
0.0117761
0.0146823
0.0177947
0.0210838
0.0245508
0.0282255
0.0320437
0.0360387
0.0401927
0.0444237
-0.00967248
-0.00715477
-0.00471166
-0.00232248
4.06578e-05
0.00236037
0.00464774
0.00693305
0.00925094
0.0116443
0.01415
0.0168287
0.0197003
0.0227875
0.0260566
0.0295051
0.0331591
0.0369541
0.0409209
0.0450386
0.0492233
-0.00404256
-0.00156522
0.000834928
0.00317874
0.00549297
0.00775969
0.00999083
0.0122162
0.0144713
0.0168026
0.0192512
0.0218824
0.0247192
0.0277813
0.0310302
0.03446
0.0380931
0.0418648
0.0458034
0.0498847
0.054023
0.00158769
0.00402446
0.00638143
0.00867966
0.0109448
0.0131583
0.015333
0.0174981
0.0196902
0.0219593
0.0243506
0.0269341
0.029736
0.0327726
0.0360012
0.039412
0.0430242
0.0467724
0.0506824
0.0547271
0.0588188
0.0072176
0.00961355
0.0119271
0.0141795
0.0163952
0.0185553
0.0206733
0.022778
0.0249069
0.0271134
0.0294471
0.0319827
0.0347494
0.0377603
0.0409684
0.0443601
0.0479509
0.0516754
0.0555566
0.0595645
0.0636094
0.0128492
0.0152042
0.0174741
0.0196805
0.0218467
0.0239532
0.0260143
0.0280584
0.0301239
0.0322678
0.0345437
0.0370312
0.0397626
0.0427477
0.0459351
0.0493074
0.0528768
0.0565774
0.0604297
0.0644007
0.0683985
0.0184831
0.020797
0.0230232
0.0251835
0.0273
0.0293527
0.0313569
0.0333403
0.0353422
0.0374233
0.0396414
0.0420807
0.0447766
0.0477357
0.0509023
0.0542552
0.0578031
0.0614796
0.0653029
0.0692367
0.0731874
0.0241154
0.0263878
0.0285701
0.0306839
0.0327505
0.0347491
0.036696
0.0386184
0.0405565
0.0425745
0.0447344
0.0471252
0.0497854
0.0527182
0.0558636
0.0591968
0.0627229
0.0663751
0.070169
0.0740655
0.0779686
0.0297457
0.0319764
0.0341143
0.0361814
0.0381977
0.040142
0.0420313
0.0438922
0.0457662
0.0477208
0.0498221
0.0521641
0.0547882
0.0576945
0.0608184
0.0641316
0.0676355
0.071263
0.0750273
0.078886
0.0827414
0.0353748
0.0375634
0.0396567
0.0416768
0.0436424
0.045532
0.0473634
0.0491627
0.0509722
0.0528631
0.0549056
0.0571985
0.0597863
0.0626657
0.0657679
0.0690607
0.0725421
0.0761447
0.0798791