/*--------------------------------*- C++ -*----------------------------------*\
  =========                 |
  \\      /  F ield         | OpenFOAM: The Open Source CFD Toolbox
   \\    /   O peration     | Website:  https://openfoam.org
    \\  /    A nd           | Version:  6
     \\/     M anipulation  |
\*---------------------------------------------------------------------------*/
FoamFile
{
    version     2.0;
    format      ascii;
    class       volScalarField;
    location    "3200";
    object      Cy;
}
// * * * * * * * * * * * * * * * * * * * * * * * * * * * * * * * * * * * * * //

dimensions      [0 1 0 0 0 0 0];

internalField   nonuniform List<scalar> 
3773
(
0.00258867
0.00778423
0.0130095
0.0182477
0.0234897
0.0287321
0.0339745
0.0392167
0.0444588
0.0497004
0.0549411
0.0601818
0.0654221
0.0706603
0.0758869
0.0810866
0.0862505
0.0913955
0.0965528
0.101739
0.106957
0.112194
0.117434
0.122664
0.127854
0.132956
0.137935
0.142766
0.14745
0.152014
0.15646
0.160789
0.165037
0.0025794
0.00775608
0.012962
0.0181804
0.0234023
0.0286244
0.0338462
0.0390676
0.0442887
0.0495091
0.0547286
0.0599482
0.0651675
0.0703851
0.0755915
0.0807718
0.0859173
0.0910446
0.0961838
0.101352
0.10655
0.111766
0.116985
0.122196
0.127367
0.132451
0.137417
0.142236
0.14691
0.151466
0.155904
0.160225
0.164467
0.00257011
0.00772787
0.0129143
0.0181129
0.0233148
0.0285165
0.0337176
0.0389182
0.0441182
0.0493174
0.0545158
0.0597143
0.0649126
0.0701093
0.0752955
0.0804564
0.0855836
0.090693
0.0958142
0.100963
0.106142
0.111338
0.116536
0.121727
0.126878
0.131946
0.136897
0.141705
0.146369
0.150916
0.155346
0.159661
0.163896
0.0025608
0.00769961
0.0128666
0.0180453
0.0232271
0.0284084
0.0335889
0.0387685
0.0439475
0.0491255
0.0543026
0.0594799
0.0646572
0.0698331
0.074999
0.0801405
0.0852492
0.0903408
0.0954439
0.100574
0.105733
0.110909
0.116087
0.121257
0.126389
0.13144
0.136376
0.141172
0.145827
0.150365
0.154787
0.159095
0.163324
0.00255147
0.0076713
0.0128187
0.0179776
0.0231392
0.0283001
0.0334599
0.0386186
0.0437764
0.0489332
0.054089
0.0592451
0.0644013
0.0695564
0.074702
0.079824
0.0849142
0.0899879
0.0950729
0.100184
0.105323
0.110478
0.115636
0.120786
0.125899
0.130932
0.135854
0.140639
0.145284
0.149813
0.154227
0.158528
0.16275
0.00254213
0.00764294
0.0127708
0.0179098
0.0230512
0.0281916
0.0333306
0.0384684
0.0436051
0.0487405
0.053875
0.0590099
0.064145
0.0692791
0.0744044
0.0795069
0.0845786
0.0896343
0.0947012
0.0997935
0.104913
0.110048
0.115184
0.120314
0.125408
0.130424
0.135332
0.140105
0.14474
0.149261
0.153666
0.157959
0.162175
0.00253277
0.00761452
0.0127228
0.0178418
0.022963
0.0280829
0.0332012
0.0383179
0.0434334
0.0485475
0.0536606
0.0587742
0.0638882
0.0690014
0.0741063
0.0791893
0.0842424
0.0892801
0.0943288
0.0994021
0.104502
0.109616
0.114732
0.119841
0.124916
0.129915
0.134808
0.139569
0.144195
0.148706
0.153104
0.15739
0.161599
0.00252338
0.00758604
0.0126747
0.0177737
0.0228746
0.027974
0.0330714
0.0381671
0.0432613
0.0483541
0.0534459
0.0585381
0.0636309
0.0687231
0.0738076
0.078871
0.0839055
0.0889252
0.0939556
0.09901
0.10409
0.109183
0.114279
0.119367
0.124422
0.129405
0.134283
0.139033
0.143649
0.148151
0.152541
0.156819
0.161022
0.00251398
0.0075575
0.0126265
0.0177055
0.0227861
0.0278649
0.0329414
0.0380161
0.043089
0.0481604
0.0532307
0.0583016
0.0633731
0.0684443
0.0735083
0.0785521
0.0835679
0.0885696
0.0935817
0.0986171
0.103677
0.10875
0.113824
0.118892
0.123928
0.128893
0.133757
0.138495
0.143101
0.147595
0.151976
0.156247
0.160443
0.00250456
0.00752891
0.0125782
0.0176371
0.0226974
0.0277556
0.0328112
0.0378647
0.0429163
0.0479662
0.053015
0.0580645
0.0631148
0.068165
0.0732085
0.0782326
0.0832297
0.0882133
0.0932071
0.0982234
0.103263
0.108315
0.113369
0.118417
0.123433
0.128381
0.13323
0.137956
0.142553
0.147037
0.15141
0.155674
0.159863
0.00249512
0.00750025
0.0125298
0.0175686
0.0226085
0.027646
0.0326807
0.037713
0.0427433
0.0477717
0.052799
0.0578271
0.0628559
0.067885
0.072908
0.0779124
0.0828908
0.0878563
0.0928317
0.0978289
0.102848
0.10788
0.112913
0.11794
0.122937
0.127867
0.132702
0.137416
0.142003
0.146478
0.150842
0.155099
0.159282
0.00248566
0.00747154
0.0124812
0.0174999
0.0225194
0.0275362
0.0325499
0.037561
0.0425699
0.0475768
0.0525825
0.0575891
0.0625966
0.0676046
0.0726069
0.0775916
0.0825512
0.0874985
0.0924555
0.0974335
0.102433
0.107444
0.112456
0.117462
0.12244
0.127353
0.132173
0.136875
0.141452
0.145918
0.150274
0.154523
0.158699
0.00247617
0.00744276
0.0124326
0.0174311
0.0224301
0.0274262
0.0324189
0.0374087
0.0423961
0.0473814
0.0523656
0.0573506
0.0623367
0.0673235
0.0723053
0.0772701
0.082211
0.08714
0.0920785
0.0970373
0.102017
0.107007
0.111998
0.116984
0.121942
0.126837
0.131642
0.136332
0.140899
0.145356
0.149704
0.153945
0.158115
0.00246667
0.00741391
0.0123839
0.0173622
0.0223406
0.0273159
0.0322876
0.0372561
0.042222
0.0471857
0.0521482
0.0571117
0.0620763
0.0670419
0.072003
0.0769479
0.0818699
0.0867807
0.0917007
0.0966403
0.101599
0.106569
0.111539
0.116504
0.121442
0.12632
0.131111
0.135789
0.140346
0.144793
0.149133
0.153366
0.157529
0.00245715
0.00738501
0.0123351
0.0172931
0.022251
0.0272054
0.032156
0.0371032
0.0420475
0.0469896
0.0519304
0.0568722
0.0618154
0.0667597
0.0717
0.0766251
0.0815282
0.0864206
0.0913221
0.0962424
0.101181
0.10613
0.111079
0.116023
0.120942
0.125802
0.130578
0.135244
0.139791
0.144229
0.14856
0.152786
0.156942
0.0024476
0.00735604
0.0122861
0.0172238
0.0221611
0.0270947
0.0320241
0.0369499
0.0418727
0.046793
0.0517121
0.0566323
0.0615539
0.0664768
0.0713964
0.0763016
0.0811857
0.0860598
0.0909427
0.0958436
0.100762
0.10569
0.110618
0.115541
0.12044
0.125283
0.130044
0.134698
0.139234
0.143664
0.147986
0.152204
0.156353
0.00243803
0.007327
0.0122371
0.0171544
0.0220711
0.0269837
0.0318919
0.0367963
0.0416974
0.046596
0.0514933
0.0563918
0.0612918
0.0661934
0.0710922
0.0759773
0.0808425
0.0856981
0.0905624
0.095444
0.100342
0.105249
0.110156
0.115058
0.119938
0.124763
0.129509
0.134151
0.138677
0.143097
0.14741
0.151621
0.155763
0.00242844
0.00729789
0.0121879
0.0170848
0.0219808
0.0268725
0.0317594
0.0366423
0.0415218
0.0463986
0.0512741
0.0561508
0.0610292
0.0659093
0.0707872
0.0756524
0.0804985
0.0853357
0.0901812
0.0950434
0.0999212
0.104807
0.109693
0.114574
0.119434
0.124241
0.128972
0.133602
0.138118
0.142528
0.146833
0.151036
0.155172
0.00241882
0.00726871
0.0121387
0.0170151
0.0218903
0.026761
0.0316266
0.036488
0.0413458
0.0462007
0.0510543
0.0559092
0.0607659
0.0656246
0.0704816
0.0753267
0.0801537
0.0849724
0.0897992
0.0946419
0.0994993
0.104364
0.109228
0.114089
0.118929
0.123719
0.128434
0.133052
0.137558
0.141959
0.146255
0.15045
0.154578
0.00240918
0.00723947
0.0120893
0.0169452
0.0217997
0.0266492
0.0314935
0.0363334
0.0411694
0.0460024
0.0508341
0.0556671
0.0605021
0.0653393
0.0701753
0.0750003
0.0798081
0.0846083
0.0894163
0.0942394
0.0990764
0.10392
0.108763
0.113603
0.118423
0.123195
0.127895
0.132501
0.136996
0.141388
0.145675
0.149862
0.153984
0.00239952
0.00721015
0.0120398
0.0168751
0.0217088
0.0265372
0.0313601
0.0361783
0.0409925
0.0458036
0.0506133
0.0554245
0.0602377
0.0650533
0.0698683
0.0746731
0.0794618
0.0842433
0.0890325
0.093836
0.0986525
0.103475
0.108297
0.113115
0.117915
0.12267
0.127355
0.131948
0.136433
0.140815
0.145094
0.149273
0.153387
0.00238984
0.00718076
0.0119901
0.0168049
0.0216176
0.0264249
0.0312264
0.0360229
0.0408153
0.0456044
0.050392
0.0551812
0.0599726
0.0647666
0.0695606
0.0743452
0.0791146
0.0838774
0.0886478
0.0934317
0.0982276
0.103029
0.107829
0.112627
0.117407
0.122143
0.126813
0.131394
0.135869
0.140241
0.144511
0.148682
0.152789
0.00238012
0.00715129
0.0119404
0.0167345
0.0215263
0.0263124
0.0310924
0.0358672
0.0406376
0.0454046
0.0501702
0.0549375
0.0597069
0.0644793
0.0692522
0.0740164
0.0787666
0.0835107
0.0882621
0.0930263
0.0978016
0.102581
0.10736
0.112137
0.116897
0.121615
0.12627
0.130838
0.135303
0.139665
0.143926
0.14809
0.152189
0.00237039
0.00712175
0.0118905
0.0166639
0.0214347
0.0261996
0.030958
0.035711
0.0404595
0.0452044
0.0499479
0.0546931
0.0594406
0.0641913
0.068943
0.0736869
0.0784177
0.0831431
0.0878755
0.09262
0.0973746
0.102133
0.106891
0.111646
0.116386
0.121086
0.125726
0.130282
0.134735
0.139088
0.14334
0.147496
0.151588
0.00236063
0.00709213
0.0118405
0.0165931
0.0213429
0.0260865
0.0308233
0.0355545
0.040281
0.0450038
0.049725
0.0544481
0.0591737
0.0639026
0.068633
0.0733566
0.078068
0.0827746
0.0874879
0.0922126
0.0969465
0.101684
0.10642
0.111154
0.115873
0.120556
0.12518
0.129723
0.134167
0.13851
0.142753
0.1469
0.150985
0.00235084
0.00706244
0.0117903
0.0165222
0.0212509
0.0259731
0.0306883
0.0353976
0.040102
0.0448026
0.0495016
0.0542025
0.0589061
0.0636131
0.0683224
0.0730255
0.0777174
0.0824051
0.0870994
0.0918043
0.0965173
0.101233
0.105948
0.11066
0.11536
0.120024
0.124633
0.129164
0.133596
0.13793
0.142163
0.146302
0.15038
0.00234102
0.00703266
0.01174
0.016451
0.0211586
0.0258594
0.0305529
0.0352403
0.0399225
0.0446009
0.0492777
0.0539564
0.0586378
0.063323
0.0680109
0.0726935
0.077366
0.0820348
0.0867099
0.0913948
0.0960871
0.100781
0.105474
0.110166
0.114845
0.119491
0.124085
0.128602
0.133024
0.137348
0.141572
0.145703
0.149773
0.00233118
0.00700281
0.0116896
0.0163797
0.0210661
0.0257454
0.0304172
0.0350826
0.0397426
0.0443987
0.0490531
0.0537096
0.0583688
0.0630321
0.0676986
0.0723608
0.0770136
0.0816634
0.0863194
0.0909844
0.0956557
0.100328
0.105
0.10967
0.114328
0.118956
0.123535
0.12804
0.132451
0.136764
0.14098
0.145102
0.149165
0.00232131
0.00697287
0.0116391
0.0163082
0.0209734
0.0256311
0.0302811
0.0349245
0.0395623
0.044196
0.048828
0.0534621
0.0580992
0.0627405
0.0673856
0.0720271
0.0766604
0.0812911
0.0859278
0.0905728
0.0952232
0.0998742
0.104524
0.109172
0.113811
0.118421
0.122983
0.127475
0.131876
0.136179
0.140386
0.1445
0.148555
0.00231142
0.00694286
0.0115884
0.0162365
0.0208804
0.0255165
0.0301446
0.0347659
0.0393815
0.0439927
0.0486023
0.0532141
0.0578289
0.0624482
0.0670718
0.0716926
0.0763062
0.0809179
0.0855352
0.0901602
0.0947896
0.0994189
0.104047
0.108674
0.113292
0.117883
0.12243
0.12691
0.131299
0.135593
0.13979
0.143895
0.147943
0.00230149
0.00691275
0.0115376
0.0161646
0.0207871
0.0254016
0.0300078
0.034607
0.0392002
0.043789
0.048376
0.0529653
0.0575578
0.062155
0.0667571
0.0713572
0.0759511
0.0805436
0.0851416
0.0897464
0.0943548
0.0989624
0.103568
0.108174
0.112771
0.117344
0.121876
0.126342
0.130721
0.135004
0.139192
0.143289
0.147329
0.00229154
0.00688257
0.0114866
0.0160925
0.0206936
0.0252864
0.0298706
0.0344476
0.0390184
0.0435846
0.0481492
0.052716
0.0572861
0.0618611
0.0664416
0.071021
0.075595
0.0801684
0.0847469
0.0893316
0.0939188
0.0985046
0.103089
0.107672
0.112249
0.116804
0.12132
0.125773
0.130141
0.134414
0.138592
0.142681
0.146713
0.00228156
0.00685229
0.0114355
0.0160202
0.0205998
0.0251709
0.0297331
0.0342878
0.0388361
0.0433798
0.0479217
0.0524659
0.0570136
0.0615665
0.0661253
0.0706838
0.075238
0.0797921
0.0843512
0.0889156
0.0934816
0.0980456
0.102608
0.10717
0.111726
0.116262
0.120762
0.125203
0.129559
0.133822
0.137991
0.142072
0.146096
0.00227155
0.00682193
0.0113843
0.0159477
0.0205058
0.025055
0.0295952
0.0341275
0.0386533
0.0431743
0.0476936
0.0522152
0.0567404
0.061271
0.0658081
0.0703457
0.0748801
0.0794148
0.0839543
0.0884984
0.0930432
0.0975854
0.102125
0.106666
0.111201
0.115719
0.120203
0.124631
0.128976
0.133229
0.137388
0.14146
0.145476
0.00226151
0.00679148
0.0113329
0.015875
0.0204115
0.0249389
0.0294568
0.0339668
0.03847
0.0429684
0.0474648
0.0519638
0.0564665
0.0609747
0.06549
0.0700067
0.0745211
0.0790365
0.0835564
0.0880801
0.0926036
0.0971238
0.101642
0.10616
0.110675
0.115174
0.119642
0.124057
0.128391
0.132634
0.136783
0.140846
0.144855
0.00225144
0.00676094
0.0112813
0.0158021
0.0203169
0.0248224
0.0293181
0.0338056
0.0382862
0.0427618
0.0472355
0.0517117
0.0561918
0.0606776
0.0651711
0.0696668
0.0741611
0.0786571
0.0831573
0.0876607
0.0921628
0.096661
0.101157
0.105653
0.110148
0.114628
0.11908
0.123481
0.127805
0.132037
0.136177
0.140231
0.144231
0.00224134
0.00673031
0.0112296
0.0157289
0.0202221
0.0247055
0.029179
0.033644
0.0381019
0.0425546
0.0470055
0.0514589
0.0559163
0.0603797
0.0648513
0.0693259
0.0738002
0.0782766
0.0827571
0.08724
0.0917207
0.0961968
0.10067
0.105145
0.109618
0.11408
0.118516
0.122904
0.127216
0.131438
0.135568
0.139613
0.143606
0.0022312
0.00669958
0.0111777
0.0156556
0.0201269
0.0245883
0.0290395
0.033482
0.0379171
0.0423469
0.0467748
0.0512054
0.0556401
0.060081
0.0645306
0.0689841
0.0734382
0.0778951
0.0823558
0.0868181
0.0912773
0.0957313
0.100182
0.104635
0.109088
0.113531
0.11795
0.122325
0.126626
0.130837
0.134958
0.138994
0.142979
0.00222104
0.00666876
0.0111257
0.015582
0.0200315
0.0244708
0.0288996
0.0333194
0.0377317
0.0421386
0.0465435
0.0509512
0.0553631
0.0597814
0.064209
0.0686413
0.0730752
0.0775124
0.0819533
0.086395
0.0908327
0.0952645
0.0996933
0.104124
0.108556
0.11298
0.117383
0.121745
0.126034
0.130235
0.134345
0.138373
0.142349
0.00221084
0.00663785
0.0110736
0.0155082
0.0199358
0.0243529
0.0287592
0.0331564
0.0375458
0.0419297
0.0463115
0.0506963
0.0550852
0.0594809
0.0638864
0.0682975
0.0727111
0.0771287
0.0815496
0.0859707
0.0903868
0.0947963
0.0992027
0.103611
0.108022
0.112427
0.116814
0.121162
0.12544
0.12963
0.133731
0.13775
0.141718
0.00220062
0.00660683
0.0110212
0.0154342
0.0198399
0.0242347
0.0286185
0.0329929
0.0373593
0.0417201
0.0460789
0.0504406
0.0548066
0.0591796
0.063563
0.0679527
0.072346
0.0767438
0.0811448
0.0855451
0.0899395
0.0943267
0.0987107
0.103097
0.107486
0.111873
0.116244
0.120578
0.124845
0.129024
0.133115
0.137124
0.141084
0.00219036
0.00657572
0.0109687
0.01536
0.0197436
0.0241161
0.0284773
0.0328289
0.0371723
0.04151
0.0458455
0.0501841
0.0545272
0.0588774
0.0632385
0.0676069
0.0719798
0.0763578
0.0807387
0.0851182
0.0894909
0.0938558
0.0982171
0.102581
0.10695
0.111317
0.115671
0.119992
0.124247
0.128416
0.132496
0.136497
0.140448
0.00218006
0.00654452
0.0109161
0.0152855
0.019647
0.0239972
0.0283357
0.0326644
0.0369848
0.0412992
0.0456115
0.0499269
0.054247
0.0585743
0.0629132
0.0672601
0.0716125
0.0759706
0.0803314
0.0846901
0.089041
0.0933834
0.0977222
0.102064
0.106411
0.110759
0.115097
0.119405
0.123648
0.127806
0.131876
0.135867
0.139811
0.00216974
0.00651321
0.0108632
0.0152108
0.0195501
0.0238779
0.0281937
0.0324994
0.0367966
0.0410878
0.0453768
0.049669
0.0539659
0.0582704
0.0625869
0.0669123
0.0712442
0.0755823
0.0799229
0.0842607
0.0885897
0.0929096
0.0972257
0.101545
0.105871
0.1102
0.114522
0.118815
0.123047
0.127193
0.131254
0.135236
0.139171
0.00215938
0.0064818
0.0108102
0.0151358
0.019453
0.0237582
0.0280512
0.0323339
0.0366079
0.0408757
0.0451414
0.0494102
0.053684
0.0579655
0.0622596
0.0665634
0.0708747
0.0751928
0.0795132
0.08383
0.0881371
0.0924344
0.0967278
0.101025
0.105329
0.109639
0.113944
0.118224
0.122444
0.126579
0.13063
0.134602
0.138528
0.00214898
0.00645029
0.0107571
0.0150606
0.0193555
0.0236381
0.0279083
0.0321679
0.0364186
0.040663
0.0449052
0.0491507
0.0534012
0.0576597
0.0619313
0.0662135
0.0705041
0.0748022
0.0791022
0.0833979
0.087683
0.0919577
0.0962283
0.100503
0.104786
0.109076
0.113365
0.117631
0.121839
0.125963
0.130003
0.133967
0.137884
0.00213855
0.00641867
0.0107037
0.0149852
0.0192577
0.0235177
0.027765
0.0320014
0.0362288
0.0404497
0.0446684
0.0488904
0.0531176
0.057353
0.061602
0.0658625
0.0701324
0.0744103
0.07869
0.0829646
0.0872276
0.0914796
0.0957273
0.099979
0.104241
0.108512
0.112784
0.117036
0.121232
0.125345
0.129375
0.133329
0.137238
0.00212809
0.00638695
0.0106502
0.0149095
0.0191596
0.0233969
0.0276211
0.0318344
0.0360383
0.0402357
0.0444308
0.0486293
0.0528331
0.0570453
0.0612718
0.0655105
0.0697595
0.0740172
0.0782765
0.0825299
0.0867707
0.0909999
0.0952247
0.0994538
0.103694
0.107945
0.112201
0.116439
0.120623
0.124725
0.128745
0.132689
0.136589
0.00211759
0.00635512
0.0105965
0.0148336
0.0190612
0.0232757
0.0274769
0.0316668
0.0358473
0.040021
0.0441925
0.0483674
0.0525477
0.0567367
0.0609405
0.0651573
0.0693855
0.073623
0.0778617
0.0820938
0.0863125
0.0905188
0.0947206
0.098927
0.103145
0.107378
0.111616
0.11584
0.120012
0.124103
0.128112
0.132047
0.135938
0.169374
0.17381
0.178224
0.182643
0.18709
0.191604
0.196215
0.200939
0.205805
0.21086
0.216123
0.221567
0.227137
0.232739
0.238278
0.243703
0.248995
0.254162
0.259212
0.264181
0.269091
0.27395
0.27879
0.168784
0.173186
0.177566
0.181951
0.186365
0.190844
0.195418
0.200103
0.204928
0.209937
0.215151
0.220541
0.226056
0.231602
0.237086
0.242459
0.247701
0.252821
0.257828
0.262753
0.267622
0.272442
0.277242
0.168193
0.172561
0.176908
0.181259
0.185639
0.190084
0.19462
0.199267
0.20405
0.209014
0.214178
0.219516
0.224975
0.230465
0.235894
0.241215
0.246408
0.251482
0.256444
0.261327
0.266155
0.270935
0.275695
0.167601
0.171935
0.176248
0.180566
0.184912
0.189322
0.193822
0.198431
0.203172
0.208091
0.213206
0.218491
0.223895
0.229328
0.234703
0.239972
0.245115
0.250143
0.255061
0.259902
0.264689
0.269428
0.27415
0.167007
0.171308
0.175588
0.179873
0.184185
0.18856
0.193024
0.197594
0.202294
0.207168
0.212234
0.217466
0.222815
0.228192
0.233513
0.238729
0.243824
0.248805
0.253678
0.258478
0.263224
0.267924
0.272606
0.166413
0.17068
0.174926
0.179178
0.183457
0.187798
0.192226
0.196757
0.201416
0.206245
0.211262
0.216441
0.221735
0.227057
0.232323
0.237488
0.242533
0.247467
0.252297
0.257055
0.26176
0.26642
0.271063
0.165817
0.17005
0.174264
0.178483
0.182729
0.187035
0.191427
0.19592
0.200538
0.205322
0.21029
0.215417
0.220655
0.225922
0.231134
0.236247
0.241243
0.246131
0.250918
0.255633
0.260297
0.264918
0.269522
0.165219
0.169419
0.1736
0.177786
0.181999
0.18627
0.190625
0.19508
0.199657
0.204397
0.209315
0.214389
0.219573
0.224783
0.229941
0.235002
0.239949
0.244791
0.249533
0.254207
0.25883
0.263412
0.267976
0.16462
0.168787
0.172934
0.177087
0.181266
0.185502
0.189821
0.194237
0.198772
0.203467
0.208336
0.213358
0.218485
0.22364
0.228743
0.233751
0.23865
0.243445
0.248143
0.252774
0.257356
0.261898
0.266423
0.16402
0.168153
0.172267
0.176386
0.180531
0.184734
0.189016
0.193393
0.197887
0.202536
0.207356
0.212325
0.217397
0.222495
0.227544
0.2325
0.237349
0.242098
0.246752
0.25134
0.255882
0.260383
0.264869
0.163419
0.167518
0.171598
0.175685
0.179797
0.183964
0.18821
0.192548
0.197001
0.201606
0.206377
0.211292
0.216309
0.221352
0.226346
0.23125
0.236049
0.240751
0.245361
0.249908
0.254408
0.25887
0.263316
0.162815
0.16688
0.170928
0.17498
0.179058
0.183191
0.1874
0.1917
0.196111
0.20067
0.205391
0.210253
0.215215
0.220201
0.22514
0.229992
0.234742
0.239397
0.243962
0.248466
0.252925
0.257346
0.261753
0.162211
0.166241
0.170254
0.174273
0.178317
0.182414
0.186586
0.190846
0.195215
0.199728
0.204399
0.209208
0.214113
0.219042
0.223926
0.228725
0.233425
0.238032
0.242553
0.247013
0.251431
0.255811
0.260178
0.161604
0.1656
0.169579
0.173563
0.177572
0.181633
0.185768
0.189988
0.194315
0.198782
0.203402
0.208157
0.213005
0.217878
0.222706
0.227451
0.232101
0.236661
0.241136
0.245553
0.249928
0.254267
0.258593
0.160996
0.164956
0.1689
0.17285
0.176824
0.180849
0.184945
0.189125
0.193409
0.197829
0.202399
0.207099
0.211891
0.216706
0.221477
0.226169
0.230767
0.235279
0.239708
0.244081
0.248414
0.252711
0.256996
0.160386
0.164311
0.168219
0.172133
0.176072
0.18006
0.184118
0.188257
0.192497
0.19687
0.201389
0.206034
0.210768
0.215524
0.22024
0.224876
0.229424
0.233886
0.238269
0.242598
0.246887
0.251142
0.255386
0.159774
0.163663
0.167536
0.171415
0.175317
0.179268
0.183287
0.187385
0.191581
0.195907
0.200374
0.204964
0.209639
0.214338
0.218996
0.223578
0.228073
0.232487
0.236823
0.241107
0.245352
0.249566
0.253767
0.159161
0.163013
0.166849
0.170692
0.174558
0.178471
0.18245
0.186507
0.190659
0.194936
0.19935
0.203884
0.208501
0.213141
0.217741
0.222268
0.226711
0.231074
0.235363
0.239601
0.243803
0.247973
0.252132
0.158545
0.16236
0.166159
0.169964
0.173793
0.177667
0.181606
0.185621
0.189727
0.193956
0.198317
0.202794
0.207352
0.211931
0.216473
0.220944
0.225333
0.229646
0.233887
0.238079
0.242235
0.246361
0.250477
0.157928
0.161704
0.165466
0.169234
0.173025
0.17686
0.180759
0.18473
0.188791
0.19297
0.197278
0.201698
0.206196
0.210715
0.215198
0.219612
0.223948
0.22821
0.232402
0.236547
0.240658
0.24474
0.248811
0.157308
0.161046
0.16477
0.168499
0.172251
0.176047
0.179903
0.183831
0.187845
0.191974
0.196227
0.200589
0.205026
0.209484
0.213907
0.218263
0.222545
0.226755
0.230898
0.234995
0.23906
0.243096
0.247123
0.156687
0.160386
0.16407
0.167761
0.171474
0.175229
0.179043
0.182926
0.186894
0.190972
0.19517
0.199473
0.203849
0.208245
0.212607
0.216906
0.221132
0.22529
0.229383
0.233432
0.23745
0.241441
0.245422
0.156063
0.159722
0.163366
0.167017
0.17069
0.174403
0.178174
0.182012
0.185931
0.189958
0.1941
0.198343
0.202657
0.20699
0.211291
0.215531
0.219701
0.223805
0.227847
0.231847
0.235817
0.239761
0.243696
0.155438
0.159054
0.162658
0.166267
0.169899
0.17357
0.177297
0.181088
0.184958
0.188931
0.193016
0.197199
0.201449
0.205718
0.209957
0.214137
0.21825
0.222299
0.226289
0.230239
0.23416
0.238056
0.241944
0.15481
0.158384
0.161946
0.165514
0.169104
0.172731
0.176413
0.180158
0.183978
0.187898
0.191925
0.196046
0.200232
0.204437
0.208613
0.212732
0.216787
0.220781
0.224718
0.228618
0.232489
0.236336
0.240176
0.15418
0.157711
0.16123
0.164755
0.168301
0.171884
0.17552
0.179216
0.182985
0.18685
0.190818
0.194876
0.198998
0.203137
0.207248
0.211305
0.215301
0.219239
0.223122
0.22697
0.23079
0.234588
0.238379
0.153547
0.157034
0.16051
0.163991
0.167494
0.171032
0.174621
0.178268
0.181985
0.185795
0.189703
0.193699
0.197754
0.201827
0.205874
0.209868
0.213804
0.217686
0.221514
0.225309
0.229078
0.232825
0.236566
0.152913
0.156355
0.159785
0.163223
0.16668
0.170172
0.173714
0.177311
0.180976
0.184729
0.188577
0.192508
0.196497
0.200502
0.204483
0.208414
0.21229
0.216113
0.219886
0.223627
0.227344
0.23104
0.23473
0.152275
0.155671
0.159055
0.162446
0.165857
0.169302
0.172794
0.176339
0.17995
0.183645
0.18743
0.191296
0.195216
0.199153
0.203066
0.206932
0.210745
0.214509
0.218225
0.221911
0.225574
0.229217
0.232855
0.151636
0.154983
0.15832
0.161664
0.165027
0.168423
0.171864
0.175357
0.178912
0.182548
0.18627
0.190068
0.193919
0.197786
0.20163
0.20543
0.20918
0.212883
0.216541
0.220171
0.223778
0.227368
0.230952
0.150993
0.154292
0.15758
0.160875
0.16419
0.167535
0.170925
0.174363
0.177861
0.181437
0.185095
0.188825
0.192605
0.196401
0.200175
0.203907
0.207593
0.211235
0.214833
0.218405
0.221957
0.225491
0.229022
0.150349
0.153597
0.156835
0.16008
0.163344
0.166638
0.169975
0.173359
0.176799
0.180313
0.183905
0.187566
0.191274
0.194997
0.198701
0.202364
0.205985
0.209563
0.213101
0.216615
0.220109
0.223587
0.227062
0.149701
0.152897
0.156085
0.159278
0.162491
0.165733
0.169015
0.172342
0.175723
0.179174
0.182699
0.186289
0.189924
0.193574
0.197205
0.200799
0.204352
0.207867
0.211343
0.214797
0.218232
0.221653
0.225071
0.149051
0.152194
0.155328
0.158469
0.161629
0.164816
0.168042
0.171312
0.174632
0.178019
0.181475
0.184993
0.188553
0.192128
0.195686
0.199208
0.202693
0.206142
0.209555
0.212947
0.216323
0.219685
0.223045
0.148398
0.151486
0.154565
0.157652
0.160757
0.163888
0.167056
0.170266
0.173523
0.176844
0.18023
0.183674
0.187159
0.190656
0.194139
0.197588
0.201003
0.204384
0.207733
0.211063
0.214377
0.217678
0.220978
0.147742
0.150774
0.153798
0.156828
0.159877
0.162951
0.166061
0.169209
0.172403
0.175657
0.178971
0.182341
0.185748
0.189168
0.192574
0.195949
0.199293
0.202606
0.205889
0.209155
0.212407
0.215647
0.218886
0.147084
0.150058
0.153024
0.155997
0.158988
0.162004
0.165053
0.168139
0.171268
0.174453
0.177694
0.180987
0.184315
0.187656
0.190984
0.194284
0.197556
0.200799
0.204015
0.207215
0.210403
0.21358
0.216757
0.146423
0.149337
0.152244
0.155158
0.15809
0.161045
0.164033
0.167055
0.170117
0.173231
0.176398
0.179613
0.182861
0.186121
0.18937
0.192593
0.195791
0.198963
0.20211
0.205244
0.208367
0.21148
0.214593
0.145758
0.148611
0.151458
0.154311
0.157183
0.160076
0.163
0.165956
0.16895
0.171993
0.175084
0.17822
0.181386
0.184564
0.187732
0.190877
0.193999
0.197099
0.200176
0.203242
0.206298
0.209346
0.212394
0.145091
0.147881
0.150665
0.153456
0.156265
0.159094
0.161953
0.164842
0.167766
0.170735
0.173749
0.176804
0.179886
0.18298
0.186066
0.189131
0.192177
0.195203
0.198208
0.201205
0.204192
0.207173
0.210155
0.144421
0.147146
0.149866
0.152594
0.155339
0.158103
0.160895
0.163715
0.166567
0.169462
0.172396
0.175369
0.178367
0.181375
0.184378
0.187362
0.19033
0.19328
0.196213
0.199138
0.202057
0.204969
0.207884
0.143748
0.146407
0.149061
0.151722
0.154401
0.157099
0.159822
0.162572
0.165351
0.168169
0.171023
0.173911
0.176823
0.179745
0.182662
0.185563
0.188452
0.191325
0.194184
0.197037
0.199884
0.202727
0.205572
0.143072
0.145663
0.148249
0.150844
0.153455
0.156084
0.158737
0.161415
0.16412
0.166859
0.169631
0.172434
0.175258
0.178092
0.180923
0.18374
0.186548
0.189343
0.192126
0.194906
0.197681
0.200453
0.203228
0.142393
0.144914
0.147431
0.149956
0.152498
0.155057
0.157638
0.160242
0.162871
0.165531
0.168219
0.170935
0.17367
0.176414
0.179157
0.181889
0.184614
0.187329
0.190035
0.19274
0.195441
0.198141
0.200845
0.141711
0.14416
0.146606
0.149061
0.151533
0.154019
0.156528
0.159056
0.161607
0.164186
0.166789
0.169417
0.17206
0.174714
0.177367
0.180012
0.182654
0.185289
0.187916
0.190545
0.193172
0.195798
0.198428
0.141026
0.143402
0.145776
0.148158
0.150558
0.152971
0.155405
0.157857
0.160329
0.162825
0.165342
0.16788
0.170432
0.172993
0.175556
0.178113
0.18067
0.183223
0.185771
0.188322
0.190873
0.193425
0.195982
0.140337
0.142639
0.144939
0.147247
0.149573
0.151911
0.154269
0.156643
0.159034
0.161446
0.163875
0.166321
0.16878
0.171248
0.173718
0.176186
0.178656
0.181126
0.183594
0.186066
0.18854
0.191015
0.193497
0.139646
0.141871
0.144095
0.146328
0.148578
0.15084
0.153119
0.155413
0.157722
0.160048
0.162387
0.164741
0.167105
0.169478
0.171855
0.174232
0.176615
0.178999
0.181385
0.183777
0.186172
0.188571
0.190976
0.138951
0.141098
0.143245
0.1454
0.147573
0.149757
0.151957
0.154169
0.156394
0.158633
0.160882
0.163142
0.165409
0.167685
0.169968
0.172253
0.174547
0.176845
0.179148
0.181459
0.183774
0.186094
0.188422
0.28352
0.288163
0.292841
0.297542
0.302246
0.306962
0.311685
0.316398
0.321084
0.325729
0.330325
0.334846
0.339286
0.343604
0.347805
0.351857
0.355712
0.359411
0.362884
0.366118
0.369185
0.281955
0.286604
0.291286
0.295991
0.3007
0.305419
0.310145
0.314859
0.319547
0.324197
0.328798
0.333327
0.337774
0.342099
0.346305
0.350363
0.354226
0.357936
0.361425
0.364682
0.36778
0.280391
0.285045
0.289733
0.294442
0.299154
0.303876
0.308605
0.313321
0.318012
0.322664
0.327271
0.331808
0.336263
0.340595
0.344806
0.348869
0.35274
0.35646
0.359965
0.363246
0.366375
0.278829
0.283488
0.28818
0.292894
0.29761
0.302335
0.307066
0.311784
0.316477
0.321133
0.325745
0.33029
0.334753
0.339091
0.343307
0.347376
0.351254
0.354985
0.358506
0.361811
0.36497
0.277268
0.281933
0.286629
0.291347
0.296067
0.300795
0.305528
0.310248
0.314943
0.319602
0.32422
0.328772
0.333243
0.337587
0.341809
0.345883
0.349769
0.353511
0.357047
0.360375
0.363566
0.275709
0.280378
0.28508
0.289801
0.294525
0.299256
0.303991
0.308713
0.313409
0.318072
0.322696
0.327255
0.331733
0.336084
0.340311
0.34439
0.348284
0.352036
0.355589
0.35894
0.362161
0.274151
0.278826
0.283531
0.288257
0.292984
0.297718
0.302455
0.307179
0.311877
0.316543
0.321172
0.325739
0.330225
0.334582
0.338813
0.342897
0.346799
0.350562
0.35413
0.357505
0.360757
0.272588
0.277267
0.281977
0.286706
0.291436
0.296173
0.300912
0.305637
0.310336
0.315005
0.319639
0.324213
0.328706
0.333069
0.337305
0.341394
0.345303
0.349076
0.352659
0.356057
0.359339
0.271017
0.2757
0.280413
0.285146
0.289879
0.294617
0.299358
0.304083
0.308784
0.313454
0.318093
0.322674
0.327173
0.331542
0.335782
0.339875
0.343791
0.347573
0.351172
0.354591
0.357903
0.269445
0.274132
0.278849
0.283584
0.288319
0.293059
0.297801
0.302527
0.307228
0.311901
0.316544
0.321131
0.325637
0.330011
0.334255
0.338352
0.342274
0.346066
0.349679
0.353121
0.356463
0.267875
0.272566
0.277285
0.282023
0.286761
0.291503
0.296245
0.300972
0.305673
0.310348
0.314995
0.319589
0.324101
0.32848
0.332727
0.336828
0.340757
0.344558
0.348186
0.35165
0.355021
0.266294
0.270987
0.275709
0.280449
0.285188
0.289931
0.294674
0.2994
0.304102
0.308778
0.313428
0.318028
0.322545
0.326928
0.331179
0.335283
0.339218
0.343027
0.346669
0.350155
0.353555
0.264699
0.269395
0.274119
0.27886
0.2836
0.288343
0.293085
0.297811
0.302511
0.307188
0.311841
0.316445
0.320967
0.325354
0.329607
0.333714
0.337654
0.341471
0.345126
0.348632
0.35206
0.263096
0.267793
0.272518
0.277259
0.282
0.286742
0.291483
0.296207
0.300906
0.305582
0.310237
0.314846
0.319372
0.323762
0.328017
0.332125
0.33607
0.339894
0.343561
0.347088
0.350543
0.261479
0.266177
0.270902
0.275643
0.280383
0.285124
0.289863
0.294584
0.299281
0.303956
0.308613
0.313225
0.317755
0.322147
0.326402
0.330512
0.33446
0.33829
0.341969
0.345515
0.348997
0.259847
0.264546
0.26927
0.27401
0.278748
0.283487
0.288223
0.292941
0.297634
0.302308
0.306965
0.311579
0.316112
0.320505
0.32476
0.32887
0.332821
0.336657
0.340347
0.343911
0.347419
0.258207
0.262905
0.267628
0.272366
0.277102
0.281838
0.286571
0.291285
0.295974
0.300645
0.305302
0.309918
0.314453
0.318847
0.323101
0.327211
0.331163
0.335004
0.338705
0.342286
0.345819
0.25655
0.261246
0.265966
0.270701
0.275435
0.280167
0.284895
0.289604
0.294288
0.298956
0.303611
0.308228
0.312764
0.317157
0.32141
0.325518
0.329472
0.333317
0.337026
0.340625
0.344182
0.254872
0.259565
0.264282
0.269013
0.273742
0.278469
0.283191
0.287894
0.292572
0.297235
0.301888
0.306505
0.31104
0.315432
0.319682
0.323787
0.327741
0.331589
0.335306
0.33892
0.3425
0.253183
0.257872
0.262585
0.267311
0.272035
0.276757
0.281472
0.286167
0.290839
0.295496
0.300146
0.304762
0.309296
0.313686
0.317932
0.322034
0.325987
0.329837
0.333561
0.33719
0.340792
0.25147
0.256154
0.260861
0.265581