/*--------------------------------*- C++ -*----------------------------------*\
  =========                 |
  \\      /  F ield         | OpenFOAM: The Open Source CFD Toolbox
   \\    /   O peration     | Website:  https://openfoam.org
    \\  /    A nd           | Version:  6
     \\/     M anipulation  |
\*---------------------------------------------------------------------------*/
FoamFile
{
    version     2.0;
    format      ascii;
    class       volScalarField;
    location    "3200";
    object      Cz;
}
// * * * * * * * * * * * * * * * * * * * * * * * * * * * * * * * * * * * * * //

dimensions      [0 1 0 0 0 0 0];

internalField   nonuniform List<scalar> 
3773
(
0
2.58671e-19
8.37261e-20
-8.34365e-20
0
0
5.1486e-19
0
-8.22652e-20
5.92173e-19
0
0
0
8.08793e-20
1.6834e-19
0
2.52152e-19
0
1.61587e-19
7.98113e-20
0
0
-7.90229e-20
-4.90922e-19
-1.69311e-19
5.16574e-19
2.66276e-19
0
3.73728e-19
4.78111e-19
0
1.01979e-19
0
0
-9.65792e-20
0
1.79555e-19
8.35433e-20
0
9.51717e-20
-1.7778e-19
0
-1.7672e-19
-1.76028e-19
0
-1.74804e-19
4.17936e-19
1.74943e-19
0
4.35596e-19
-1.75825e-19
-1.74174e-19
0
-2.49751e-19
7.90466e-20
-7.93413e-20
0
-1.63835e-19
8.431e-20
0
1.79863e-19
0
1.05211e-19
-2.96685e-19
1.07893e-19
-9.5473e-20
-1.77379e-19
0
0
1.80192e-19
0
-1.79375e-19
4.41329e-19
-2.73665e-19
1.77864e-19
0
3.53326e-19
2.57949e-19
0
1.75005e-19
2.57256e-19
0
0
5.16976e-19
2.68099e-19
0
0
0
0
0
-1.76434e-19
0
0
0
0
1.98384e-19
0
2.03588e-19
4.05347e-19
9.20173e-20
9.72081e-20
-1.69348e-19
-9.64432e-20
0
-1.67976e-19
1.79594e-19
-1.79081e-19
1.66469e-19
8.29811e-20
0
-3.53226e-19
0
0
-1.761e-19
0
1.77681e-19
5.18533e-19
-2.56872e-19
-9.27364e-20
1.59713e-19
1.71451e-19
0
8.0739e-20
1.64937e-19
-2.66293e-19
1.86457e-19
0
0
-1.05172e-19
3.91047e-19
2.03379e-19
0
-1.72596e-19
1.83002e-19
-1.82044e-19
1.69431e-19
0
-9.63669e-20
2.64356e-19
1.79741e-19
0
-1.66616e-19
-9.49981e-20
0
8.23134e-20
0
0
-2.60095e-19
4.39491e-19
-1.65339e-19
2.57701e-19
1.61956e-19
0
0
0
0
0
0
0
-2.82465e-19
0
1.98308e-19
0
0
1.07073e-19
-1.7323e-19
0
8.5321e-20
1.82138e-19
-1.81737e-19
8.46486e-20
0
0
0
-1.79322e-19
0
1.65849e-19
-8.26309e-20
0
-1.77279e-19
3.43901e-19
2.62079e-19
0
0
0
0
-3.33482e-19
2.54011e-19
0
-1.7811e-19
0
0
-4.75151e-19
-2.88069e-19
0
0
0
1.1987e-20
-1.79903e-19
0
1.83351e-19
-1.70747e-19
-2.67578e-19
-1.82018e-19
-3.51136e-19
-5.43243e-19
0
-1.79988e-19
0
0
-1.77949e-19
-1.77475e-19
4.38669e-19
-4.40322e-19
-1.67225e-19
-4.40087e-19
0
3.38369e-19
2.54523e-19
2.54135e-19
8.09852e-20
-1.7545e-19
-8.33145e-20
2.68321e-19
1.20288e-20
2.82912e-19
0
-2.91354e-19
-1.06558e-19
-5.00895e-19
0
-1.80549e-19
8.64501e-20
0
0
0
-4.62764e-19
9.71605e-20
2.66617e-19
0
-9.63537e-20
-3.59859e-19
-3.4636e-19
3.45147e-19
-1.78108e-19
0
1.67066e-19
0
3.57963e-19
1.77507e-19
2.57705e-19
-8.11491e-20
0
-2.56038e-19
-8.20212e-20
2.62857e-19
0
0
0
1.04065e-19
0
0
0
1.06691e-19
2.68786e-19
0
1.84683e-19
-2.70187e-19
1.83754e-19
-4.52424e-19
0
-1.82448e-19
-8.49143e-20
8.46479e-20
0
-2.63777e-19
-1.67205e-19
-2.74144e-19
2.62612e-19
0
3.60696e-19
0
0
0
0
-1.74811e-19
0
2.59111e-19
-9.59435e-20
-1.83815e-19
0
0
1.04084e-19
9.3084e-20
0
0
0
-3.57686e-19
2.734e-19
9.87055e-20
9.84376e-20
0
-1.7202e-19
0
-1.83142e-19
0
-9.70373e-20
1.69236e-19
0
-1.79912e-19
3.46739e-19
-1.79705e-19
0
0
-3.60146e-19
4.40628e-19
0
-2.57511e-19
1.75505e-19
-1.76095e-19
-1.77426e-19
2.64609e-19
9.81612e-20
0
-1.02544e-19
-2.883e-19
-1.98134e-19
0
2.97217e-19
-1.06439e-19
-9.42791e-20
0
0
-8.67294e-20
0
2.71128e-19
9.82003e-20
-8.58973e-20
2.68878e-19
0
0
0
-1.80579e-19
0
0
-1.80854e-19
4.35562e-19
0
0
-1.20549e-20
0
-2.58279e-19
0
0
-1.68965e-19
0
2.76991e-19
-1.93228e-19
4.84604e-19
-1.98102e-19
0
-2.96913e-19
1.06313e-19
0
-1.87642e-19
0
-1.86206e-19
-2.72722e-19
0
0
9.82995e-20
-1.71928e-19
0
2.67971e-19
0
0
0
1.80953e-19
1.81447e-19
-3.51975e-19
-2.65755e-19
1.79838e-19
0
0
-3.41772e-19
1.77508e-19
1.6672e-19
0
-1.85229e-19
-4.78507e-19
0
9.21396e-20
4.89176e-19
2.00481e-19
-2.01736e-19
0
0
0
-1.87427e-19
0
-1.86539e-19
0
0
-1.85267e-19
-4.557e-19
1.84133e-19
8.56591e-20
-9.73183e-20
-1.81935e-19
0
0
0
1.70531e-19
0
2.64629e-19
0
-5.21197e-19
3.55274e-19
9.51457e-20
3.58935e-19
-1.8222e-19
0
-8.86491e-20
-9.07642e-20
-1.96329e-19
2.9106e-19
2.94536e-19
0
2.00141e-19
-1.78525e-19
0
0
9.98349e-20
-2.74854e-19
0
3.60943e-19
0
0
2.7125e-19
0
-2.6891e-19
0
9.70435e-20
0
0
1.83141e-19
0
-8.4495e-20
-3.47178e-19
0
2.73578e-19
-3.57909e-19
-9.61116e-20
2.68222e-19
-3.72387e-19
0
0
4.84929e-19
0
1.06111e-19
0
0
0
0
-1.88842e-19
-1.88334e-19
2.75937e-19
1.87634e-19
0
0
3.60234e-19
-1.85572e-19
1.84789e-19
-1.96041e-19
-2.68955e-19
-2.68057e-19
1.82874e-19
0
4.5327e-19
3.53743e-19
-1.696e-19
0
-5.13369e-19
0
-5.39072e-19
0
-1.8345e-19
0
0
0
0
-1.0499e-19
0
0
1.99648e-19
-1.85949e-19
8.91943e-20
1.00806e-19
1.00555e-19
0
1.0021e-19
0
5.5033e-19
0
-1.86304e-19
0
-2.7104e-19
1.20463e-20
0
0
-2.69795e-19
-2.70424e-19
0
0
0
1.79882e-19
-2.75799e-19
-1.80435e-19
-1.81579e-19
2.70086e-19
0
0
1.94033e-19
0
-3.83908e-19
0
0
2.9311e-19
0
1.91159e-19
2.79402e-19
0
-1.89442e-19
0
-2.77041e-19
2.76285e-19
0
-8.74986e-20
1.86244e-19
-5.44243e-19
2.71075e-19
8.60269e-20
1.84187e-19
0
4.68228e-19
5.40138e-19
-1.82888e-19
2.78438e-19
8.42734e-20
-1.80598e-19
-1.81189e-19
2.6742e-19
-1.84706e-19
8.78177e-20
1.01352e-19
-3.88398e-19
-1.96513e-19
1.97927e-19
1.05926e-19
0
-1.99158e-19
0
-1.91884e-19
1.91019e-19
1.9053e-19
-1.90187e-19
1.89864e-19
0
0
0
-3.63535e-19
0
-1.86159e-19
0
0
1.84854e-19
-9.85859e-20
-1.85475e-19
-1.7261e-19
-5.38501e-19
0
6.1661e-19
0
3.63904e-19
-9.75445e-20
0
-2.76249e-19
-1.91021e-19
-1.94367e-19
1.96563e-19
0
0
-2.94818e-19
0
0
0
0
0
-2.80384e-19
0
8.90885e-20
-1.00886e-19
0
0
0
9.94713e-20
5.46483e-19
0
0
5.45255e-19
1.86073e-19
1.85252e-19
-4.54356e-19
-3.53888e-19
8.50127e-20
-1.82132e-19
-4.50778e-19
0
-1.8599e-19
2.89052e-19
2.81039e-19
-2.85798e-19
0
1.04937e-19
0
-9.41784e-20
0
-1.88815e-19
-1.02705e-19
-1.9251e-19
0
-2.81527e-19
0
-1.90997e-19
0
-1.8991e-19
-1.8931e-19
0
-1.87641e-19
-2.74343e-19
2.73316e-19
-2.73292e-19
-4.59999e-19
0
-4.58619e-19
0
0
0
1.70848e-19
1.83506e-19
-1.84513e-19
0
1.00621e-19
0
0
-1.96665e-19
-3.83703e-19
3.86996e-19
0
-9.32216e-20
1.89551e-19
1.0308e-19
0
-2.8317e-19
-2.82681e-19
0
-1.01913e-19
1.91276e-19
-1.78641e-19
0
1.77205e-19
1.00221e-19
0
9.94986e-20
0
0
0
0
-2.72142e-19
-1.84367e-19
-2.69372e-19
0
1.84298e-19
-5.43745e-19
0
-1.0088e-19
0
-1.94883e-19
1.04362e-19
0
-1.87382e-19
0
0
0
0
-1.03043e-19
0
-9.0599e-20
0
-2.82822e-19
2.82074e-19
1.91476e-19
0
-8.89892e-20
4.78916e-19
0
0
-9.98193e-20
2.75548e-19
-2.75835e-19
-1.87085e-19
1.74052e-19
1.85077e-19
0
1.84507e-19
0
8.69864e-20
-1.75918e-19
6.71877e-19
1.02231e-19
1.95059e-19
0
0
-3.98514e-19
0
-9.29818e-20
9.25057e-20
1.95629e-19
1.82754e-19
4.79852e-19
0
-2.84595e-19
0
0
5.64772e-19
-2.81458e-19
0
0
0
0
1.88298e-19
2.76543e-19
0
-1.75665e-19
2.74124e-19
0
-1.85154e-19
1.85318e-19
1.85911e-19
0
-2.76941e-19
1.90774e-19
2.83178e-19
2.86846e-19
1.96828e-19
-1.97785e-19
-9.35727e-20
0
0
-1.91805e-19
1.96402e-19
2.87358e-19
-1.03597e-19
-1.94833e-19
0
0
4.66104e-19
1.02563e-19
0
-1.91597e-19
2.80037e-19
0
0
0
0
0
-1.88339e-19
0
-8.72327e-20
8.69409e-20
1.8614e-19
-1.86734e-19
-9.98261e-20
0
1.01675e-19
-2.83725e-19
0
2.89324e-19
-3.8353e-19
0
2.93075e-19
1.97477e-19
-1.92573e-19
4.98987e-19
-1.20531e-20
0
-1.95638e-19
2.87018e-19
1.03516e-19
-1.94487e-19
0
0
-2.82572e-19
0
0
-1.77884e-19
1.89728e-19
0
0
8.84662e-20
8.80332e-20
0
8.73411e-20
-2.86492e-19
-1.75501e-19
0
2.79e-19
0
-2.84278e-19
2.87389e-19
0
9.28729e-20
0
0
2.89866e-19
-1.93349e-19
0
0
-1.96748e-19
-2.88653e-19
0
2.87686e-19
0
0
0
0
0
0
0
0
0
0
-1.00832e-19
2.77179e-19
0
-9.98093e-20
-1.87817e-19
-2.76584e-19
0
-5.60097e-19
9.01782e-20
-1.81872e-19
2.99681e-19
9.24981e-20
0
-1.98791e-19
0
0
-1.00084e-19
-1.05414e-19
1.97992e-19
9.27562e-20
0
0
1.96642e-19
0
0
2.86338e-19
1.81978e-19
-1.81054e-19
0
-2.9323e-19
1.91191e-19
0
0
4.69657e-19
0
-3.6545e-19
-2.76534e-19
0
-1.89266e-19
-2.78975e-19
-2.93161e-19
-1.92949e-19
0
-1.95968e-19
-2.89592e-19
1.04855e-19
0
-1.98811e-19
-1.96771e-19
1.00481e-19
0
-3.85568e-19
0
5.94331e-19
0
-1.04768e-19
1.04522e-19
0
0
1.0345e-19
0
1.81044e-19
-1.92256e-19
3.71826e-19
0
-1.91742e-19
1.01487e-19
-1.01125e-19
2.78245e-19
0
4.67811e-19
0
0
1.02095e-19
0
1.94656e-19
-4.84383e-19
1.97126e-19
0
2.91848e-19
0
0
0
-4.94979e-19
0
0
2.92404e-19
-1.98708e-19
0
0
-1.97253e-19
1.96592e-19
2.75468e-19
0
0
0
1.92688e-19
0
0
0
2.80341e-19
3.80574e-19
-1.90051e-19
0
1.01539e-19
-8.98015e-20
3.85726e-19
-1.94072e-19
1.9504e-19
-1.96347e-19
1.04598e-19
9.28396e-20
1.05222e-19
-1.98436e-19
3.80621e-19
1.96542e-19
0
2.00477e-19
0
1.87755e-19
1.99569e-19
1.99206e-19
0
0
2.90152e-19
1.9654e-19
0
0
0
1.93449e-19
0
0
0
5.7489e-19
8.95059e-20
-1.90905e-19
0
2.8182e-19
0
0
-1.94642e-19
0
-2.88802e-19
-3.82504e-19
0
1.98339e-19
1.0512e-19
3.80158e-19
0
0
-2.01325e-19
-1.06492e-19
0
0
2.00081e-19
0
-3.04515e-19
1.98318e-19
0
1.96426e-19
0
9.13089e-20
1.94219e-19
0
-1.93757e-19
0
2.82512e-19
-1.91859e-19
-1.01917e-19
-9.00705e-20
0
0
-3.76624e-19
0
0
0
0
-3.83304e-19
0
2.91101e-19
1.83854e-19
-3.96386e-19
-3.93775e-19
-1.07118e-19
-2.01798e-19
0
-1.89272e-19
0
0
0
-1.05622e-19
-1.05157e-19
0
-4.84987e-19
2.87207e-19
0
0
0
0
5.67233e-19
-1.80604e-19
0
0
1.9372e-19
0
0
-2.87683e-19
0
0
-1.04698e-19
2.90461e-19
2.9118e-19
-1.04935e-19
1.95614e-19
-2.95532e-19
0
-3.9405e-19
-4.05351e-19
0
0
0
0
0
0
4.10343e-19
-1.05098e-19
0
1.96319e-19
0
0
0
4.79815e-19
2.84734e-19
0
0
0
1.94648e-19
0
0
-3.80744e-19
1.04321e-19
1.04574e-19
0
1.9763e-19
1.05002e-19
-1.97696e-19
-1.03687e-19
-1.99883e-19
1.08346e-19
0
1.07808e-19
-1.07689e-19
0
-2.86085e-19
-2.97412e-19
-4.03374e-19
-4.01975e-19
0
0
0
0
0
-1.96169e-19
0
0
-3.77138e-19
0
0
0
-2.99417e-19
1.83952e-19
0
5.78926e-19
0
1.04676e-19
1.97532e-19
0
0
0
-9.15843e-20
0
0
-2.04821e-19
-2.04462e-19
1.08143e-19
0
-1.205e-20
0
0
0
2.00942e-19
-3.87788e-19
-1.98998e-19
-2.90999e-19
0
0
-1.96552e-19
0
-3.90716e-19
-1.95125e-19
0
0
-1.04306e-19
0
-2.90073e-19
-4.8796e-19
-1.97426e-19
1.04778e-19
0
1.04806e-19
-5.81388e-19
0
0
0
0
-2.05722e-19
-2.05372e-19
0
0
2.04624e-19
-2.04146e-19
0
-4.8899e-19
0
0
0
0
-1.98211e-19
-9.28262e-20
0
1.96474e-19
0
0
-9.21065e-20
-1.0449e-19
0
-3.95676e-19
0
9.30811e-20
0
0
-2.90517e-19
1.97604e-19
3.83382e-19
0
0
0
-2.07305e-19
0
0
0
-1.08978e-19
9.67588e-20
-2.05091e-19
0
0
0
2.96572e-19
0
-4.93361e-19
-9.34968e-20
-1.05257e-19
0
1.04624e-19
1.96914e-19
0
0
0
-1.05281e-19
0
-2.92459e-19
1.9882e-19
-3.03398e-19
-1.85941e-19
0
-2.90398e-19
9.27942e-20
0
4.8021e-19
0
1.10135e-19
0
0
-3.04507e-19
0
-2.06523e-19
-1.09049e-19
2.0544e-19
-4.09414e-19
0
2.97957e-19
-2.01691e-19
0
1.87832e-19
0
-4.90814e-19
0
-1.85657e-19
0
1.05117e-19
0
0
0
-2.93675e-19
0
0
1.9817e-19
0
1.97594e-19
-1.97479e-19
9.24001e-20
0
1.05163e-19
2.09138e-19
1.10273e-19
0
-4.03899e-19
1.09935e-19
0
2.07019e-19
0
1.08857e-19
3.00979e-19
5.02951e-19
0
0
0
0
0
0
0
0
0
-4.81656e-19
0
-2.00673e-19
-4.01244e-19
0
-1.99104e-19
-1.05201e-19
0
-1.04795e-19
-2.90066e-19
-9.23109e-20
0
0
3.0908e-19
0
0
-6.14774e-19
0
-1.10261e-19
0
0
1.09343e-19
-2.05631e-19
0
-9.57491e-20
2.97645e-19
1.06814e-19
-4.96122e-19
0
1.05746e-19
0
-4.80556e-19
0
-2.0093e-19
0
2.01645e-19
0
0
0
0
4.88986e-19
3.95175e-19
0
-1.04213e-19
-1.93814e-19
0
0
0
-2.10099e-19
0
-3.0865e-19
-1.10758e-19
5.1647e-19
0
-3.05416e-19
0
0
0
0
2.02454e-19
1.06857e-19
0
0
-2.94196e-19
-1.06208e-19
0
-1.0702e-19
-2.02575e-19
2.97916e-19
0
0
0
1.0542e-19
-1.98079e-19
-1.97587e-19
1.04583e-19
-1.84268e-19
0
-4.14131e-19
-5.2391e-19
-2.1137e-19
-2.11082e-19
0
-4.0952e-19
0
0
0
0
0
0
1.08748e-19
0
0
1.0727e-19
0
4.96452e-19
0
0
0
2.0303e-19
0
0
0
0
2.00412e-19
0
0
-3.95174e-19
1.04533e-19
1.96084e-19
9.06923e-20
0
0
-1.12204e-19
-2.00023e-19
0
-2.11802e-19
3.11215e-19
2.1103e-19
0
0
-2.08595e-19
0
0
-1.08646e-19
2.04228e-19
-2.03334e-19
2.0255e-19
-2.01775e-19
0
-3.92342e-19
-2.98686e-19
0
0
-2.04648e-19
2.04019e-19
-9.53212e-20
0
0
0
0
0
-2.87868e-19
0
-2.08976e-19
2.13927e-19
0
0
0
-3.13221e-19
0
2.12067e-19
-1.11749e-19
0
-2.0961e-19
0
-2.07403e-19
0
-1.08589e-19
0
2.03342e-19
0
0
0
-3.00246e-19
0
0
0
0
0
0
0
0
1.04796e-19
0
0
1.92939e-19
-1.07993e-19
-1.13488e-19
0
1.13081e-19
-5.28897e-19
-5.28661e-19
0
0
0
5.23238e-19
-4.21279e-19
0
0
0
0
2.05038e-19
-4.08286e-19
2.99042e-19
2.03554e-19
0
-1.08653e-19
-9.71169e-20
-2.0691e-19
0
0
0
0
-2.93596e-19
0
-3.02393e-19
0
4.70922e-19
-1.19904e-20
-1.02449e-19
1.13993e-19
0
0
0
0
-2.1464e-19
0
1.12807e-19
0
0
1.11274e-19
0
-2.08159e-19
-1.09511e-19
0
-3.13453e-19
0
0
0
4.12627e-19
0
0
-1.20634e-20
-1.09372e-19
-3.13104e-19
-2.02226e-19
1.99972e-19
-2.91782e-19
0
-9.23433e-20
-9.17003e-20
-3.73026e-19
0
3.19404e-19
1.14239e-19
0
-1.02012e-19
0
-2.15718e-19
0
1.13347e-19
1.00891e-19
-1.12394e-19
-1.11795e-19
0
2.09157e-19
2.07919e-19
6.20357e-19
-1.93735e-19
3.01506e-19
0
-3.03034e-19
9.76682e-20
1.10321e-19
0
-9.84025e-20
0
0
0
-1.06113e-19
0
0
0
1.03606e-19
0
1.03455e-19
1.20543e-20
-3.32241e-19
1.14657e-19
3.19702e-19
0
-3.19192e-19
3.18516e-19
0
-1.1348e-19
0
0
-2.11476e-19
0
0
0
0
-3.02762e-19
0
0
0
-1.10902e-19
0
0
1.10295e-19
0
2.03165e-19
1.88436e-19
-1.98715e-19
1.97617e-19
2.88742e-19
-1.83061e-19
0
-2.13972e-19
0
0
0
1.15149e-19
0
1.14986e-19
-5.37656e-19
-3.19251e-19
0
0
-5.28155e-19
4.25061e-19
0
0
-2.0858e-19
0
0
0
-4.04037e-19
2.0963e-19
1.98845e-19
0
0
1.97425e-19
0
-2.03643e-19
-1.06357e-19
0
-1.97627e-19
0
0
-1.0193e-19
0
0
2.68981e-19
0
-1.73369e-19
1.6683e-19
1.54189e-19
-3.05789e-19
1.45039e-19
0
0
0
2.23966e-19
0
-1.11837e-19
4.37345e-19
-1.13444e-19
0
-6.02979e-21
3.44433e-19
1.1796e-19
1.18628e-19
-2.32367e-19
4.72889e-19
-5.60853e-19
-2.76428e-19
-1.85059e-19
-1.80289e-19
-4.28385e-19
2.44655e-19
-2.3376e-19
0
0
0
1.27278e-19
-3.41982e-19
0
3.32502e-19
0
0
-1.20765e-20
0
1.23878e-19
0
1.20812e-20
0
0
0
5.55683e-19
-2.72931e-19
0
0
0
-2.35144e-19
1.52955e-19
-5.61398e-19
-2.58524e-19
0
1.10987e-19
0
0
0
1.215e-19
-1.10591e-19
0
-1.24904e-19
0
-1.14665e-19
2.54686e-19
-4.7809e-19
0
-1.9018e-19
0
-1.82064e-19
-3.51106e-19
0
-2.36538e-19
1.53905e-19
0
0
0
3.48112e-19
-2.30885e-19
-1.20923e-19
-3.40151e-19
0
-2.35321e-19
0
0
-1.27103e-19
0
0
1.94687e-19
1.81887e-19
2.80683e-19
0
2.68421e-19
0
9.09277e-20
2.37942e-19
0
2.78653e-19
3.99907e-19
0
0
-1.22524e-19
1.21971e-19
0
0
0
-1.14153e-19
0
2.44258e-19
-2.45691e-19
0
-1.95738e-19
1.03456e-19
3.84158e-19
0
3.55676e-19
4.37394e-19
0
7.57751e-20
0
4.27036e-19
0
0
-2.40319e-19
1.2359e-19
0
0
-2.37209e-19
0
0
0
-2.58506e-19
0
-1.3062e-19
9.23874e-20
4.83705e-19
0
0
0
3.56545e-19
1.71662e-19
0
1.44769e-19
0
-3.94121e-19
2.5289e-19
1.20621e-20
3.61958e-19
0
1.20738e-20
0
0
-2.44702e-19
0
-1.30355e-19
0
-1.3175e-19
2.90808e-19
-1.96928e-19
-1.03037e-19
4.70471e-19
0
-3.4657e-19
-2.5304e-19
0
3.0377e-19
1.48518e-19
0
0
0
2.39555e-19
-2.38415e-19
0
0
-3.59795e-19
2.46851e-19
-2.48437e-19
-2.50775e-19
2.52278e-19
-1.20759e-19
0
0
-1.03543e-19
8.97741e-20
0
0
2.54535e-19
-4.10572e-19
0
1.49622e-19
0
0
-2.47092e-19
0
-1.26388e-19
-2.4167e-19
0
0
-2.49107e-19
2.50706e-19
2.53049e-19
0
0
1.06052e-19
0
1.96066e-19
-1.92521e-19
-4.63112e-19
2.65842e-19
0
0
-7.39763e-20
1.50706e-19
2.85611e-19
2.59781e-19
0
1.16055e-19
0
0
-2.4615e-19
0
0
2.53055e-19
2.55411e-19
0
0
1.06607e-19
0
0
0
0
-1.82201e-19
-5.14902e-19
2.46957e-19
0
-1.39766e-19
-2.75839e-19
-2.62112e-19
1.19855e-19
0
0
-1.29218e-19
0
-1.19379e-19
0
0
-1.22862e-19
0
2.60809e-19
4.99889e-19
2.01185e-19
0
-1.94594e-19
-3.67418e-19
0
0
3.27712e-19
-2.37412e-19
2.94157e-19
0
-2.64729e-19
0
0
2.47885e-19
-2.60869e-19
0
0
-1.2202e-19
2.57756e-19
0
-2.61704e-19
0
-2.03541e-19
0
5.85807e-19
0
0
0
-3.43749e-19
-7.94697e-20
-1.51382e-19
-2.96538e-19
0
0
0
-2.51619e-19
0
-1.31692e-19
1.20663e-19
0
-1.35352e-19
-1.36178e-19
-3.99982e-19
0
0
-2.04766e-19
1.07749e-19
0
1.96771e-19
0
9.88026e-20
9.55559e-20
0
0
0
0
5.39878e-19
0
0
-1.32557e-19
0
0
0
-2.6113e-19
1.37436e-19
2.77215e-19
0
0
0
-1.08348e-19
0
4.76732e-19
0
-2.62063e-19
1.80255e-19
0
4.85762e-19
0
-2.86262e-19
-1.42357e-19
0
2.57006e-19
5.11483e-19
2.56577e-19
0
-2.60864e-19
2.63762e-19
-1.3876e-19
0
0
-1.41543e-19
6.09973e-19
0
2.02855e-19
0
0
0
0
0
-1.67296e-19
0
0
0
-1.26579e-19
2.59868e-19
0
0
0
-1.25746e-19
4.05713e-19
0
0
0
2.73741e-19
0
-3.04769e-19
-1.08034e-19
0
1.03697e-19
-1.00582e-19
-4.50722e-19
0
0
-1.47583e-19
0
0
1.40057e-19
0
-1.36743e-19
2.62201e-19
0
0
0
0
0
-1.43602e-19
0
0
0
-2.05438e-19
0
0
-1.90588e-19
0
-1.77474e-19
0
-5.46272e-19
0
0
1.41665e-19
-1.38963e-19
0
-1.38637e-19
0
-1.40693e-19
0
0
-2.76162e-19
0
2.79585e-19
-2.11502e-19
4.19873e-19
0
2.02931e-19
0
0
3.58913e-19
-8.33881e-20
3.42938e-19
-1.62684e-19
-1.55066e-19
1.48351e-19
1.31144e-19
0
0
0
0
1.42228e-19
-2.75207e-19
1.44514e-19
1.45679e-19
0
1.35346e-19
0
0
3.0626e-19
-3.00467e-19
0
0
-2.74356e-19
0
-9.2519e-20
0
-2.29016e-19
-8.10316e-20
-2.77666e-19
1.42156e-19
-1.41449e-19
2.71488e-19
-1.30652e-19
-1.3172e-19
2.78342e-19
1.46091e-19
0
-1.36097e-19
-2.86018e-19
0
0
1.20222e-20
0
0
-1.94838e-19
-2.76725e-19
0
0
3.19959e-19
0
0
0
0
1.43167e-19
0
1.44404e-19
0
0
-1.47735e-19
-2.85691e-19
2.87602e-19
1.50738e-19
0
0
-5.21902e-19
-1.09621e-19
0
-1.04127e-19
0
0
1.76147e-19
-8.98066e-20
0
0
1.48337e-19
0
-1.44888e-19
-1.45197e-19
0
0
0
0
-1.38558e-19
0
0
5.38794e-19
0
0
-1.10498e-19
-1.08059e-19
0
0
1.85311e-19
2.61179e-19
3.27156e-19
-1.50075e-19
0
-1.3829e-19
7.98356e-20
1.46814e-19
2.82068e-19
0
4.34877e-19
1.50362e-19
0
0
2.24098e-19
0
-5.43275e-19
1.14941e-19
0
-1.11287e-19
5.08095e-19
-4.9307e-19
-2.84011e-19
0
-1.79795e-19
-1.71347e-19
0
-3.02631e-19
-2.92419e-19
0
0
0
0
1.50888e-19
0
4.475e-19
0
0
0
-2.21597e-19
-1.15857e-19
1.02169e-19
-4.24661e-19
-4.14857e-19
2.01457e-19
1.95203e-19
-2.77238e-19
-2.66598e-19
-1.7337e-19
-1.65999e-19
0
0
1.51569e-19
1.50767e-19
-3.71464e-19
0
0
0
0
0
0
-1.58447e-19
0
-4.43267e-19
-1.03131e-19
3.15321e-19
0
-2.0339e-19
0
0
0
-1.75506e-19
2.4624e-19
1.61648e-19
0
0
0
-8.26196e-20
2.9592e-19
2.97904e-19
0
4.5989e-19
0
0
5.44136e-19
0
0
-1.16096e-19
0
-2.11093e-19
1.08602e-19
1.98953e-19
4.63659e-19
-1.85687e-19
0
0
-1.63746e-19
2.32007e-19
2.99773e-19
-4.53234e-19
-1.55319e-19
0
0
3.05001e-19
-1.59537e-19
0
-3.11618e-19
0
0
-3.44614e-19
0
0
2.13252e-19
1.09709e-19
-2.01205e-19
0
1.88059e-19
8.39356e-20
0
0
7.45651e-20
-7.31628e-20
1.57551e-19
-1.5773e-19
3.05032e-19
-8.58165e-20
-1.48804e-19
0
-4.77156e-19
0
4.84186e-19
0
-1.07985e-19
2.24552e-19
3.24511e-19
1.13732e-19
1.97561e-19
-5.02586e-19
-1.04671e-19
0
0
2.56775e-19
0
4.79204e-19
2.35394e-19
-5.42154e-19
-7.40758e-20
0
1.62033e-19
3.14701e-19
0
0
-1.66871e-19
-2.46053e-19
0
-1.21212e-19
1.19469e-19
0
-1.02846e-19
0
0
1.99706e-19
-1.02458e-19
-2.71339e-19
-8.28786e-20
9.17677e-20
1.66451e-19
2.39427e-19
3.13422e-19
8.74991e-20
0
8.8389e-20
0
-2.44645e-19
0
7.87592e-20
2.5027e-19
-2.35256e-19
0
5.79513e-19
0
-2.2015e-19
-1.2038e-20
0
0
0
0
4.45428e-19
1.62206e-19
0
0
-1.65591e-19
0
2.43756e-19
-1.67491e-19
0
4.97868e-19
-2.50731e-19
1.60453e-19
8.08874e-20
-1.20346e-20
0
2.32037e-19
0
-2.22717e-19
2.16978e-19
0
0
5.82559e-19
8.9196e-20
0
0
-8.01141e-20
5.87262e-19
1.68601e-19
1.68725e-19
0
2.49676e-19
-2.51768e-19
0
-1.74256e-19
-2.57495e-19
0
0
0
0
2.30423e-19
0
0
0
0
0
-1.02774e-19
0
1.68364e-19
1.63445e-19
-2.5307e-19
3.3154e-19
0
-3.33384e-19
0
-2.56604e-19
0
-5.2054e-19
3.46039e-19
1.80554e-19
0
-1.26783e-19
1.24954e-19
0
0
0
0
0
0
-4.8588e-19
0
-8.58983e-20
-8.34592e-20
-2.583e-19
0
-2.57048e-19
-3.40325e-19
0
3.57199e-19
2.63752e-19
-1.81128e-19
1.82749e-19
-2.70425e-19
0
0
0
-3.60888e-19
2.31586e-19
3.44962e-19
1.16005e-19
2.14208e-19
2.07687e-19
0
5.68728e-19
1.87569e-19
0
-1.7999e-19
0
-4.41811e-19
-3.47835e-19
-2.6533e-19
3.52666e-19
0
8.64498e-20
-8.73146e-20
1.88431e-19
0
-2.48236e-19
0
2.39788e-19
0
2.29127e-19
2.23131e-19
-1.02691e-19
0
0
0
-1.91206e-19
1.20916e-20
8.58262e-20
0
4.39167e-19
0
-5.42108e-19
-8.70626e-20
-2.75412e-19
0
0
0
0
-2.52011e-19
0
-1.27766e-19
-2.26403e-19
-1.10422e-19
0
3.25998e-19
0
0
-2.96081e-19
-1.95581e-19
-1.01497e-19
0
2.86963e-19
-2.75023e-19
0
0
-5.72346e-19
1.02207e-19
0
1.95642e-19
3.83029e-19
0
0
0
1.29598e-19
0
2.36493e-19
0
0
0
0
0
0
-4.02383e-19
0
0
1.01925e-19
0
0
-1.03675e-19
0
0
2.00329e-19
1.2131e-20
-1.37717e-19
0
0
0
0
-1.14358e-19
1.23469e-19
0
0
4.32981e-19
0
0
0
0
0
-4.86291e-19
1.97888e-19
2.92297e-19
9.42286e-20
9.50909e-20
-2.99602e-19
2.06097e-19
0
0
-1.26355e-19
-1.24308e-19
0
1.31253e-19
-1.28514e-19
-1.13514e-19
-1.22896e-19
2.27635e-19
-2.08963e-19
1.13554e-19
0
0
-2.02776e-19
0
0
0
-1.0813e-19
0
0
3.07797e-19
-2.11728e-19
-1.13147e-19
0
1.40873e-19
0
0
1.33619e-19
2.4975e-19
-2.43909e-19
0
0
-1.07119e-19
0
4.18422e-19
9.94734e-20
9.82784e-20
0
0
0
0
0
5.29164e-19
0
0
-3.25588e-19
-2.78627e-19
2.74961e-19
0
0
2.72171e-19
-2.54705e-19
2.48882e-19
1.27902e-19
0
0
0
0
0
0
2.14032e-19
0
2.15465e-19
0
0
-4.41469e-19
-2.22432e-19
0
0
0
-7.92033e-20
0
0
0
3.841e-19
1.33182e-19
0
0
0
0
0
-2.23692e-19
0
-2.20882e-19
4.30346e-19
4.57123e-19
2.2369e-19
-1.1897e-19
0
1.0891e-19
0
0
1.51466e-19
2.86792e-19
-1.47154e-19
0
0
0
0
-1.33677e-19
2.4973e-19
-2.44144e-19
0
-2.34544e-19
1.21548e-19
3.49655e-19
-3.36599e-19
0
-1.09068e-19
2.3156e-19
-1.22995e-19
0
-2.38388e-19
0
-3.62293e-19
0
-2.93374e-19
0
0
1.44717e-19
0
-2.6632e-19
-2.61546e-19
0
1.20924e-20
3.63086e-19
0
-2.38631e-19
-1.24535e-19
1.24284e-19
0
-2.38503e-19
2.39862e-19
0
1.16505e-19
1.29704e-19
0
-2.55167e-19
1.46525e-19
0
0
0
-2.16043e-19
-2.78761e-19
0
0
-3.88834e-19
-1.35232e-19
-1.20914e-19
1.31128e-19
0
0
-1.28787e-19
0
0
0
-1.32078e-19
0
0
0
0
-1.50552e-19
0
0
1.54508e-19
2.91282e-19
1.49065e-19
0
1.44027e-19
0
0
1.37326e-19
1.3566e-19
0
-2.55619e-19
0
-2.5632e-19
0
0
-1.37508e-19
0
-1.40524e-19
0
0
-3.2195e-19
0
-3.11379e-19
0
0
0
-8.11424e-20
0
0
2.75381e-19
-1.41989e-19
-1.28458e-19
0
2.66382e-19
1.39289e-19
1.39844e-19
0
0
-1.43496e-19
6.66557e-20
4.28377e-19
0
2.22652e-19
-5.9524e-19
4.94804e-19
2.43234e-19
1.62782e-19
-7.38742e-20
0
2.25691e-19
0
0
-1.48563e-19
2.82063e-19
-1.46004e-19
-7.8732e-20
-2.78316e-19
0
0
0
0
2.88215e-19
2.92733e-19
-1.5397e-19
7.25074e-20
0
2.43464e-19
0
0
0
0
0
2.58924e-19
0
3.9174e-19
0
0
0
-2.74833e-19
0
-1.45275e-19
0
2.27864e-19
-1.52082e-19
-4.13465e-19
2.5703e-19
-2.67562e-19
-1.30862e-19
-1.31417e-19
1.31782e-19
0
1.33655e-19
0
0
-1.37314e-19
0
-2.81607e-19
0
2.77541e-19
0
0
0
0
3.0765e-19
-4.79875e-19
2.52335e-19
0
-2.84462e-19
0
0
0
0
0
3.8047e-19
2.60103e-19
0
-1.39332e-19
-3.99156e-19
2.73457e-19
0
0
0
0
-1.56049e-19
0
-8.7939e-20
-2.51791e-19
9.51517e-20
-2.71219e-19
0
1.31645e-19
0
0
-1.22013e-19
0
-1.36396e-19
-1.25946e-19
0
-1.29332e-19
0
2.77844e-19
-2.93067e-19
0
0
-2.28001e-19
-2.335e-19
0
2.51257e-19
0
0
2.5019e-19
-1.31763e-19
2.52396e-19
0
1.34308e-19
2.58754e-19
1.24626e-19
0
2.68022e-19
0
2.74274e-19
-2.78003e-19
-2.81066e-19
2.18678e-19
-2.90729e-19
0
0
0
-2.50731e-19
-1.77119e-19
0
0
0
0
2.54732e-19
2.56987e-19
2.59304e-19
0
-1.38761e-19
0
2.71993e-19
-1.43384e-19
-2.78166e-19
-2.8113e-19
0
0
0
-3.92797e-19
-2.39015e-19
0
-2.58819e-19
-5.35628e-19
2.5057e-19
0
-1.32547e-19
1.33584e-19
0
-2.59861e-19
-2.62587e-19
-1.39133e-19
0
0
0
0
0
0
-2.90852e-19
0
0
0
0
-1.76026e-19
2.66706e-19
-2.50663e-19
-3.84174e-19
0
-1.21646e-19
2.57799e-19
-2.60327e-19
5.26248e-19
0
-1.41101e-19
0
-2.75345e-19
0
1.34445e-19
1.49619e-19
0
1.43567e-19
0
0
1.69638e-19
-1.62846e-19
0
0
-2.52349e-19
0
-1.33907e-19
0
-2.60905e-19
0
0
-1.4148e-19
0
-1.43916e-19
0
0
1.49574e-19
-2.90381e-19
0
-7.3397e-20
2.37567e-19
-7.85408e-20
0
0
0
2.52661e-19
3.74911e-19
0
-2.58794e-19
3.9835e-19
-4.02778e-19
5.36852e-19
0
1.4328e-19
2.76258e-19
0
0
-2.87182e-19
0
0
-5.3779e-19
2.37419e-19
0
-2.54571e-19
1.78897e-19
0
2.52975e-19
0
0
-3.95023e-19
0
0
2.69265e-19
2.72544e-19
-2.75201e-19
5.53518e-19
1.45461e-19
-2.81226e-19
0
-1.3929e-19
-3.82819e-19
1.58772e-19
0
2.46789e-19
-2.53821e-19
1.78218e-19
2.51506e-19
2.53163e-19
2.54628e-19
-3.79365e-19
0
0
2.65838e-19
-1.28962e-19
0
0
0
-1.45395e-19
-2.80863e-19
1.49357e-19
-2.20497e-19
0
-2.31189e-19
0
-3.228e-19
0
0
0
5.07084e-19
0
-2.57443e-19
-2.60356e-19
0
-1.39365e-19
-2.70944e-19
0
1.32241e-19
-1.44834e-19
1.45536e-19
1.4654e-19
-1.49393e-19
0
-1.55029e-19
3.04075e-19
0
1.55011e-19
1.71303e-19
0
-1.32084e-19
0
0
1.34999e-19
1.3651e-19
1.26043e-19
0
0
0
-2.77332e-19
0
-4.24697e-19
0
0
-2.89744e-19
0
0
1.4865e-19
3.20481e-19
0
1.74624e-19
-1.3227e-19
-1.21122e-19
3.90088e-19
-1.35288e-19
0
-1.38532e-19
-2.68355e-19
2.72919e-19
0
0
2.78697e-19
2.91475e-19
3.48277e-19
0
-2.8973e-19
0
3.02912e-19
0
-2.42629e-19
0
0
-3.8531e-19
-2.54766e-19
-2.56581e-19
0
0
0
0
0
1.44663e-19
2.7917e-19
-1.45705e-19
1.45853e-19
0
0
1.50755e-19
1.54361e-19
1.57103e-19
0
-1.64996e-19
0
5.05698e-19
0
-2.55355e-19
1.22588e-19
0
0
0
-2.70376e-19
-2.75229e-19
-1.33177e-19
0
-1.34046e-19
4.26329e-19
2.8147e-19
0
-2.89897e-19
-1.54543e-19
0
0
7.643e-20
0
2.52322e-19
-2.53817e-19
1.21904e-19
0
1.36316e-19
-1.38066e-19
-1.27879e-19
5.43054e-19
0
1.45919e-19
0
0
0
0
0
-1.20603e-20
0
1.56569e-19
-1.47104e-19
-1.63756e-19
1.66978e-19
-2.49964e-19
-1.21195e-19
0
-2.58702e-19
0
-1.38562e-19
0
1.42427e-19
0
0
2.82644e-19
1.46995e-19
-1.46574e-19
0
0
1.50873e-19
1.54177e-19
1.56669e-19
-3.06336e-19
7.57771e-20
1.54625e-19
0
0
0
2.59554e-19
3.99565e-19
-1.39096e-19
0
0
-7.89419e-20
0
-1.48055e-19
-2.82945e-19
-4.28548e-19
5.64301e-19
-2.86618e-19
1.50901e-19
2.96107e-19
0
-3.0574e-19
8.75822e-20
0
1.69451e-19
0
5.28439e-19
0
1.25663e-19
0
0
0
1.46668e-19
-1.48271e-19
-2.8559e-19
-1.36023e-19
1.4721e-19
-1.47269e-19
0
1.50859e-19
-2.248e-19
-3.00264e-19
7.31961e-20
7.51661e-20
-1.53072e-19
0
0
0
1.36812e-19
0
0
-4.15533e-19
1.32536e-19
-1.47504e-19
2.86133e-19
0
-2.85408e-19
0
2.83279e-19
-2.18569e-19
-1.51262e-19
0
0
-1.58747e-19
1.50493e-19
-5.60038e-19
0
0
0
1.25362e-19
0
0
2.74846e-19
0
-2.29042e-19
-1.50277e-19
-2.89232e-19
1.49537e-19
0
-2.83557e-19
-2.87176e-19
1.51026e-19
-4.49268e-19
-1.43779e-19
0
-1.61411e-19
0
7.74755e-20
0
-1.3671e-19
2.64055e-19
2.67209e-19
0
-4.20802e-19
-4.27546e-19
0
0
1.51605e-19
2.88549e-19
0
-4.32868e-19
0
2.21215e-19
-1.42144e-19
0
0
3.11183e-19
0
4.89108e-19
0
0
0
1.4044e-19
1.30667e-19
-1.45318e-19
0
0
3.7534e-19
-2.23105e-19
1.51256e-19
-6.86271e-20
0
0
-4.42984e-19
0
0
0
0
2.39171e-19
0
-3.85871e-19
0
-2.67182e-19
0
0
1.4646e-19
0
2.92526e-19
1.53971e-19
-2.25068e-19
0
0
-2.86394e-19
0
1.51946e-19
0
3.00278e-19
0
0
0
1.53997e-19
0
-4.04414e-19
-2.6874e-19
-1.42161e-19
2.77263e-19
-2.82855e-19
0
-2.94965e-19
0
0
1.53301e-19
0
-2.87712e-19
-1.5129e-19
0
1.54961e-19
0
7.32124e-20
0
1.63398e-19
0
2.64319e-19
0
1.2087e-20
0
0
0
1.51609e-19
0
0
2.29369e-19
0
0
0
0
0
2.97913e-19
-3.01191e-19
0
3.09676e-19
0
0
0
-2.69441e-19
-1.30466e-19
0
0
0
0
0
7.33808e-20
-7.32741e-20
0
2.93635e-19
2.90536e-19
0
0
7.16663e-20
1.5695e-19
0
0
0
0
0
-1.29759e-19
0
1.45745e-19
-4.34004e-19
0
0
0
0
0
5.33797e-19
0
0
4.46895e-19
0
0
3.02686e-19
0
-7.4532e-20
2.38495e-19
-3.97079e-19
2.70315e-19
0
1.45047e-19
0
0
1.53764e-19
-2.29224e-19
2.35774e-19
0
4.75618e-19
0
0
2.9434e-19
3.07617e-19
0
0
-2.30815e-19
2.32847e-19
0
0
0
0
0
2.8086e-19
0
1.51975e-19
-1.4358e-19
0
0
-8.87804e-20
-2.41208e-19
0
0
1.54339e-19
0
2.99073e-19
2.29814e-19
1.46452e-19
1.59801e-19
1.61856e-19
0
-3.21742e-19
-1.43742e-19
0
2.84039e-19
-1.38288e-19
1.53886e-19
1.57832e-19
5.46327e-19
-1.66201e-19
-7.8009e-20
-2.45029e-19
-5.54156e-19
-1.46364e-19
0
0
1.56515e-19
2.3102e-19
-2.32825e-19
0
-1.6237e-19
-7.60678e-20
0
4.23686e-19
2.82802e-19
-3.68655e-19
0
-3.00039e-19
-2.34387e-19
-1.63977e-19
1.69236e-19
0
0
-4.09013e-19
0
-4.59152e-19
-7.24509e-20
1.57576e-19
0
-5.54137e-19
0
-2.38428e-19
0
0
0
2.86507e-19
0
0
1.58533e-19
4.77087e-19
-2.44457e-19
-4.256e-19
5.9355e-19
8.07825e-20
-1.68877e-19
5.50771e-19
-4.64181e-19
3.89858e-19
0
2.3397e-19
0
3.12018e-19
3.27524e-19
0
-1.69469e-19
0
0
0
3.00859e-19
-7.42911e-20
2.42164e-19
-3.39276e-19
0
2.60656e-19
1.76562e-19
9.17263e-20
0
-8.62265e-20
0
-2.3426e-19
0
7.51115e-20
0
0
-7.74095e-20
0
0
0
-1.44348e-19
0
-1.64026e-19
2.47836e-19
0
-8.41161e-20
4.38611e-19
0
0
1.55393e-19
-3.13149e-19
0
0
3.13236e-19
1.51418e-19
1.64399e-19
-7.69341e-20
-3.24121e-19
0
0
0
1.4649e-19
4.7305e-19
0
1.72117e-19
9.45257e-20
0
0
0
8.3054e-20
0
-1.64541e-19
-1.63364e-19
3.14794e-19
-1.52197e-19
5.5967e-19
-3.19817e-19
-1.67455e-19
-3.27199e-19
0
0
0
2.36793e-19
-1.65313e-19
0
1.76766e-19
2.67028e-19
1.89791e-19
-1.92475e-19
0
0
0
1.67378e-19
-1.53584e-19
-7.66873e-20
2.43047e-19
0
1.67531e-19
-2.59534e-19
5.02233e-19
3.52862e-19
-7.2764e-20
-3.09704e-19
3.17123e-19
7.80587e-20
0
-9.63026e-20
-4.59264e-19
0
0
-3.77957e-19
3.741e-19
1.76588e-19
7.88602e-20
-5.69347e-19
-8.98037e-20
4.1403e-19
0
-2.48088e-19
-1.70853e-19
8.06583e-20
0
-2.35012e-19
2.40371e-19
0
-1.72307e-19
0
0
1.02083e-19
0
0
2.96591e-19
-1.92731e-19
0
9.26175e-20
-2.49897e-19
-1.70012e-19
1.7031e-19
0
2.5128e-19
-1.60884e-19
1.75849e-19
0
1.6372e-19
3.35138e-19
1.71961e-19
0
0
0
0
-9.77864e-20
1.11649e-19
4.40747e-19
-1.98141e-19
9.85839e-20
0
0
0
1.72772e-19
0
-2.54827e-19
0
-4.40115e-19
-9.8509e-20
0
1.71368e-19
0
1.68664e-19
-5.64631e-19
0
-2.04355e-19
0
0
-4.31922e-19
0
0
-1.68063e-19
3.534e-19
-2.57327e-19
0
2.57885e-19
0
-1.78067e-19
-3.50934e-19
4.65564e-19
0
0
0
0
0
-2.99585e-19
1.12164e-19
3.31004e-19
-1.20549e-19
0
-3.1223e-19
-1.95626e-19
0
0
0
0
-5.24984e-19
1.79638e-19
-1.81185e-19
2.71554e-19
0
1.74969e-19
0
1.85645e-19
-1.79033e-19
2.00114e-19
0
0
0
2.38426e-19
0
0
-2.95692e-19
0
0
0
-4.36833e-19
1.82258e-19
2.68231e-19
1.84473e-19
1.00433e-19
0
-1.79578e-19
-8.64455e-20
0
0
-3.04962e-19
4.26014e-19
2.2947e-19
0
2.50533e-19
2.45479e-19
0
4.16121e-19
0
3.65003e-19
-8.71525e-20
8.6849e-20
0
2.7382e-19
0
0
-1.07601e-19
0
0
-3.83408e-19
-2.04585e-19
2.15685e-19
0
2.40686e-19
0
-1.38546e-19
2.58975e-19
0
0
-1.99949e-19
0
0
-8.89953e-20
3.68319e-19
2.80155e-19
1.02425e-19
0
-3.08195e-19
0
-2.09154e-19
9.62938e-20