/*--------------------------------*- C++ -*----------------------------------*\
  =========                 |
  \\      /  F ield         | OpenFOAM: The Open Source CFD Toolbox
   \\    /   O peration     | Website:  https://openfoam.org
    \\  /    A nd           | Version:  6
     \\/     M anipulation  |
\*---------------------------------------------------------------------------*/
FoamFile
{
    version     2.0;
    format      ascii;
    class       surfaceScalarField;
    location    "3200";
    object      phi;
}
// * * * * * * * * * * * * * * * * * * * * * * * * * * * * * * * * * * * * * //

dimensions      [0 3 -1 0 0 0 0];

internalField   nonuniform List<scalar> 
7420
(
2.44009e-05
1.4704e-05
1.51619e-05
9.23895e-06
1.06846e-05
4.47725e-06
8.38538e-06
2.29927e-06
7.0568e-06
1.32858e-06
6.2289e-06
8.27895e-07
5.58347e-06
6.45439e-07
5.10194e-06
4.81529e-07
4.74658e-06
3.55358e-07
4.37125e-06
3.75328e-07
4.11992e-06
2.51335e-07
3.96615e-06
1.53767e-07
3.85823e-06
1.07917e-07
3.78097e-06
7.72576e-08
3.49728e-06
2.8369e-07
3.1088e-06
3.88487e-07
2.66137e-06
4.47424e-07
2.34488e-06
3.1649e-07
2.16104e-06
1.83848e-07
2.11148e-06
4.95539e-08
2.24478e-06
-1.33296e-07
2.45359e-06
-2.08812e-07
2.62881e-06
-1.75216e-07
2.6765e-06
-4.7699e-08
2.47069e-06
2.05813e-07
2.1176e-06
3.53086e-07
1.72758e-06
3.90028e-07
1.33817e-06
3.89408e-07
1.03343e-06
3.04744e-07
8.04957e-07
2.28468e-07
6.10767e-07
1.94191e-07
4.59732e-07
1.51035e-07
1.0635e-07
3.53382e-07
3.7609e-05
1.61999e-05
3.15665e-05
1.52814e-05
2.5951e-05
1.00928e-05
2.19244e-05
6.32586e-06
1.91358e-05
4.11717e-06
1.71631e-05
2.80062e-06
1.5612e-05
2.19645e-06
1.43997e-05
1.69383e-06
1.34414e-05
1.31367e-06
1.25555e-05
1.26122e-06
1.18809e-05
9.25967e-07
1.13853e-05
6.49371e-07
1.09864e-05
5.0686e-07
1.06121e-05
4.51539e-07
9.96564e-06
9.30127e-07
9.13476e-06
1.21937e-06
8.2054e-06
1.37678e-06
7.45497e-06
1.06692e-06
6.95251e-06
6.86309e-07
6.73353e-06
2.6854e-07
6.84399e-06
-2.43757e-07
7.10427e-06
-4.69091e-07
7.31412e-06
-3.85068e-07
7.30556e-06
-3.91449e-08
6.90611e-06
6.05263e-07
6.21784e-06
1.04135e-06
5.39166e-06
1.21621e-06
4.51532e-06
1.26575e-06
3.73248e-06
1.08758e-06
3.07486e-06
8.86094e-07
2.50176e-06
7.67283e-07
2.02283e-06
6.29966e-07
4.83843e-07
1.64534e-06
4.03078e-05
1.4997e-05
3.86341e-05
1.69552e-05
3.51066e-05
1.36203e-05
3.15525e-05
9.87994e-06
2.85653e-05
7.10439e-06
2.61772e-05
5.18868e-06
2.41912e-05
4.18242e-06
2.25605e-05
3.32457e-06
2.12157e-05
2.65851e-06
1.99998e-05
2.47712e-06
1.9018e-05
1.90776e-06
1.82375e-05
1.42978e-06
1.75732e-05
1.17123e-06
1.69335e-05
1.09123e-06
1.60386e-05
1.82499e-06
1.49481e-05
2.30985e-06
1.37396e-05
2.58527e-06
1.26963e-05
2.11027e-06
1.19274e-05
1.45516e-06
1.15034e-05
6.92599e-07
1.14675e-05
-2.07828e-07
1.16198e-05
-6.21406e-07
1.17312e-05
-4.96487e-07
1.16148e-05
7.72863e-08
1.1094e-05
1.12597e-06
1.02382e-05
1.89719e-06
9.17926e-06
2.27517e-06
8.01028e-06
2.43473e-06
6.89085e-06
2.20701e-06
5.88284e-06
1.89411e-06
4.96797e-06
1.68215e-06
4.16714e-06
1.4308e-06
1.1531e-06
3.49789e-06
4.06933e-05
1.34085e-05
4.12368e-05
1.64117e-05
3.98865e-05
1.49706e-05
3.76487e-05
1.21178e-05
3.52763e-05
9.47677e-06
3.30934e-05
7.37158e-06
3.1121e-05
6.1548e-06
2.93984e-05
5.04719e-06
2.79097e-05
4.14719e-06
2.65456e-05
3.84124e-06
2.53929e-05
3.06052e-06
2.4426e-05
2.39667e-06
2.35719e-05
2.02528e-06
2.27438e-05
1.91933e-06
2.1693e-05
2.8758e-06
2.046e-05
3.54287e-06
1.90995e-05
3.94582e-06
1.78723e-05
3.33746e-06
1.68987e-05
2.4287e-06
1.62737e-05
1.3176e-06
1.60469e-05
1.90223e-08
1.60252e-05
-5.99746e-07
1.59823e-05
-4.53607e-07
1.57363e-05
3.23332e-07
1.51173e-05
1.74494e-06
1.41695e-05
2.84505e-06
1.29949e-05
3.44975e-06
1.16695e-05
3.76013e-06
1.0345e-05
3.53148e-06
9.09192e-06
3.1472e-06
7.90888e-06
2.8652e-06
6.83083e-06
2.50884e-06
2.0962e-06
5.88773e-06
4.05181e-05
1.19953e-05
4.19144e-05
1.50154e-05
4.20337e-05
1.48513e-05
4.11084e-05
1.3043e-05
3.9653e-05
1.09322e-05
3.80356e-05
8.98905e-06
3.64e-05
7.79033e-06
3.48544e-05
6.59278e-06
3.3439e-05
5.56264e-06
3.20993e-05
5.18097e-06
3.09144e-05
4.24541e-06
2.98736e-05
3.4374e-06
2.89248e-05
2.97414e-06
2.79948e-05
2.84924e-06
2.68727e-05
3.99795e-06
2.55857e-05
4.82988e-06
2.41668e-05
5.3647e-06
2.28438e-05
4.66047e-06
2.17308e-05
3.54169e-06
2.09364e-05
2.11198e-06
2.05188e-05
4.3669e-07
2.03073e-05
-3.88304e-07
2.00944e-05
-2.40658e-07
1.9713e-05
7.04732e-07
1.90058e-05
2.45212e-06
1.80011e-05
3.84976e-06
1.67756e-05
4.67522e-06
1.53838e-05
5.15189e-06
1.39582e-05
4.95708e-06
1.25617e-05
4.54371e-06
1.11988e-05
4.22815e-06
9.91276e-06
3.79486e-06
3.26581e-06
8.74315e-06
4.02292e-05
1.0871e-05
4.18209e-05
1.34237e-05
4.2749e-05
1.39232e-05
4.28165e-05
1.29755e-05
4.22454e-05
1.15033e-05
4.13103e-05
9.92413e-06
4.01798e-05
8.9209e-06
3.89865e-05
7.78606e-06
3.78066e-05
6.74255e-06
3.66328e-05
6.3547e-06
3.55396e-05
5.3387e-06
3.45331e-05
4.44387e-06
3.35846e-05
3.92268e-06
3.26385e-05
3.79534e-06
3.15232e-05
5.11317e-06
3.02572e-05
6.09593e-06
2.88557e-05
6.76618e-06
2.75107e-05
6.00552e-06
2.63219e-05
4.73046e-06
2.54032e-05
3.03063e-06
2.482e-05
1.01996e-06
2.44315e-05
2.09338e-10
2.40566e-05
1.3424e-07
2.35481e-05
1.21318e-06
2.27644e-05
3.23582e-06
2.17244e-05
4.88975e-06
2.04863e-05
5.91331e-06
1.90863e-05
6.55194e-06
1.7635e-05
6.40838e-06
1.61797e-05
5.999e-06
1.47217e-05
5.68615e-06
1.3305e-05
5.21152e-06
4.59814e-06
1.19727e-05
3.99716e-05
1.00043e-05
4.14766e-05
1.19187e-05
4.27591e-05
1.26407e-05
4.34598e-05
1.22747e-05
4.35876e-05
1.13755e-05
4.32898e-05
1.02219e-05
4.27006e-05
9.51007e-06
4.19389e-05
8.54769e-06
4.10908e-05
7.59066e-06
4.01803e-05
7.26524e-06
3.9274e-05
6.24503e-06
3.83923e-05
5.32557e-06
3.75278e-05
4.78715e-06
3.66425e-05
4.68068e-06
3.56036e-05
6.15208e-06
3.4423e-05
7.2765e-06
3.31024e-05
8.08677e-06
3.17985e-05
7.30942e-06
3.05937e-05
5.93529e-06
2.96012e-05
4.02306e-06
2.88909e-05
1.73027e-06
2.83543e-05
5.36788e-07
2.78404e-05
6.48175e-07
2.72239e-05
1.82965e-06
2.63807e-05
4.07909e-06
2.53242e-05
5.94624e-06
2.40998e-05
7.13772e-06
2.27303e-05
7.92144e-06
2.13066e-05
7.83205e-06
1.98581e-05
7.44752e-06
1.8378e-05
7.16619e-06
1.69049e-05
6.68462e-06
6.02407e-06
1.5479e-05
3.97767e-05
9.33249e-06
4.10976e-05
1.05977e-05
4.24658e-05
1.12726e-05
4.35085e-05
1.1232e-05
4.41168e-05
1.07672e-05
4.43316e-05
1.00071e-05
4.42331e-05
9.60861e-06
4.39051e-05
8.87568e-06
4.34231e-05
8.0726e-06
4.28258e-05
7.86259e-06
4.2167e-05
6.90381e-06
4.14753e-05
6.0173e-06
4.07599e-05
5.50249e-06
3.99978e-05
5.44281e-06
3.90923e-05
7.05754e-06
3.80505e-05
8.31831e-06
3.68633e-05
9.27393e-06
3.56543e-05
8.51848e-06
3.44875e-05
7.10201e-06
3.34721e-05
5.03856e-06
3.2679e-05
2.52331e-06
3.20319e-05
1.18394e-06
3.14104e-05
1.26965e-06
3.07121e-05
2.52793e-06
2.98312e-05
4.96004e-06
2.8778e-05
6.99944e-06
2.7589e-05
8.32672e-06
2.62783e-05
9.23215e-06
2.49204e-05
9.1899e-06
2.35279e-05
8.83999e-06
2.20848e-05
8.60931e-06
2.06204e-05
8.14907e-06
7.47732e-06
1.91671e-05
3.96368e-05
8.8006e-06
4.07598e-05
9.47467e-06
4.20741e-05
9.95835e-06
4.32575e-05
1.00486e-05
4.4155e-05
9.86977e-06
4.47374e-05
9.42471e-06
4.50351e-05
9.31086e-06
4.50923e-05
8.8185e-06
4.4963e-05
8.20195e-06
4.46873e-05
8.13828e-06
4.43023e-05
7.28877e-06
4.38381e-05
6.48147e-06
4.33149e-05
6.02575e-06
4.27206e-05
6.03708e-06
4.19907e-05
7.78745e-06
4.11281e-05
9.18097e-06
4.01153e-05
1.02867e-05
3.90449e-05
9.5889e-06
3.79632e-05
8.18364e-06
3.69721e-05
6.02967e-06
3.61415e-05
3.35394e-06
3.54245e-05
1.90094e-06
3.4731e-05
1.96308e-06
3.39812e-05
3.27779e-06
3.30878e-05
5.85344e-06
3.20594e-05
8.02783e-06
3.09261e-05
9.45998e-06
2.96969e-05
1.04613e-05
2.84334e-05
1.04534e-05
2.71338e-05
1.01396e-05
2.57735e-05
9.96956e-06
2.43716e-05
9.55101e-06
8.89901e-06
2.29499e-05
3.95373e-05
8.36819e-06
4.04814e-05
8.53051e-06
4.16801e-05
8.75969e-06
4.28797e-05
8.84896e-06
4.39213e-05
8.82817e-06
4.47392e-05
8.60681e-06
4.53277e-05
8.72235e-06
4.56964e-05
8.44975e-06
4.58755e-05
8.02291e-06
4.5899e-05
8.11478e-06
4.57853e-05
7.40245e-06
4.55607e-05
6.70603e-06
4.52506e-05
6.33592e-06
4.48502e-05
6.43743e-06
4.43219e-05
8.31576e-06
4.36648e-05
9.83802e-06
4.2855e-05
1.10966e-05
4.19563e-05
1.04876e-05
4.09981e-05
9.14178e-06
4.00731e-05
6.95474e-06
3.92473e-05
4.17969e-06
3.85007e-05
2.64756e-06
3.77716e-05
2.69219e-06
3.70016e-05
4.04774e-06
3.61224e-05
6.73268e-06
3.51412e-05
9.00905e-06
3.40834e-05
1.05177e-05
3.29554e-05
1.15893e-05
3.18086e-05
1.16003e-05
3.06296e-05
1.13186e-05
2.93873e-05
1.12118e-05
2.80907e-05
1.08476e-05
1.02397e-05
2.675e-05
3.9466e-05
8.00707e-06
4.02593e-05
7.73717e-06
4.13237e-05
7.69534e-06
4.24699e-05
7.70272e-06
4.35563e-05
7.74182e-06
4.4504e-05
7.6591e-06
4.5286e-05
7.94039e-06
4.58867e-05
7.84902e-06
4.6315e-05
7.59455e-06
4.65962e-05
7.83366e-06
4.67303e-05
7.26829e-06
4.67368e-05
6.69951e-06
4.66416e-05
6.43113e-06
4.6444e-05
6.63507e-06
4.61278e-05
8.63197e-06
4.56889e-05
1.0277e-05
4.50977e-05
1.16878e-05
4.43925e-05
1.11927e-05
4.35866e-05
9.94767e-06
4.27618e-05
7.77961e-06
4.19783e-05
4.96312e-06
4.12392e-05
3.38665e-06
4.05089e-05
3.42251e-06
3.97494e-05
4.8073e-06
3.89103e-05
7.57177e-06
3.79982e-05
9.92113e-06
3.70348e-05
1.14811e-05
3.60254e-05
1.25987e-05
3.50132e-05
1.26125e-05
3.3976e-05
1.23558e-05
3.28782e-05
1.23096e-05
3.172e-05
1.20058e-05
1.14596e-05
3.05001e-05
3.94142e-05
7.69776e-06
4.00844e-05
7.06695e-06
4.10171e-05
6.76263e-06
4.20763e-05
6.64351e-06
4.31449e-05
6.67323e-06
4.41453e-05
6.6587e-06
4.50406e-05
7.04507e-06
4.57998e-05
7.08988e-06
4.64156e-05
6.97874e-06
4.69042e-05
7.34507e-06
4.72503e-05
6.92215e-06
4.7465e-05
6.48483e-06
4.75719e-05
6.32424e-06
4.75715e-05
6.63545e-06
4.74644e-05
8.73907e-06
4.72434e-05
1.0498e-05
4.68747e-05
1.20564e-05
4.63737e-05
1.16937e-05
4.57387e-05
1.05827e-05
4.50397e-05
8.47868e-06
4.43294e-05
5.67339e-06
4.363e-05
4.08601e-06
4.29292e-05
4.1233e-06
4.22077e-05
5.52882e-06
4.14325e-05
8.34699e-06
4.06096e-05
1.0744e-05
3.97577e-05
1.2333e-05
3.88819e-05
1.34745e-05
3.80188e-05
1.34756e-05
3.71396e-05
1.32351e-05
3.6206e-05
1.32432e-05
3.52108e-05
1.3001e-05
1.25281e-05
3.41423e-05
3.93758e-05
7.4268e-06
3.9947e-05
6.4958e-06
4.07602e-05
5.94938e-06
4.17205e-05
5.68321e-06
4.27357e-05
5.65805e-06
4.37366e-05
5.65776e-06
4.46846e-05
6.09715e-06
4.55405e-05
6.23394e-06
4.62867e-05
6.23253e-06
4.6932e-05
6.69979e-06
4.7449e-05
6.40515e-06
4.78407e-05
6.09312e-06
4.8127e-05
6.03794e-06
4.83079e-05
6.45458e-06
4.83964e-05
8.65059e-06
4.83826e-05
1.05117e-05
4.82297e-05
1.22093e-05
4.79333e-05
1.19902e-05
4.74779e-05
1.1038e-05
4.69214e-05
9.03524e-06
4.63076e-05
6.28713e-06
4.56742e-05
4.7195e-06
4.50287e-05
4.76881e-06
4.43687e-05
6.18881e-06
4.36774e-05
9.03823e-06
4.29607e-05
1.14607e-05
4.22345e-05
1.30592e-05
4.15046e-05
1.42044e-05
4.08018e-05
1.41785e-05
4.00922e-05
1.39446e-05
3.93367e-05
1.39987e-05
3.85223e-05
1.38153e-05
1.34223e-05
3.76281e-05
3.9347e-05
7.18469e-06
3.98388e-05
6.00396e-06
4.0548e-05
5.2402e-06
4.14098e-05
4.82144e-06
4.23541e-05
4.71374e-06
4.33231e-05
4.68878e-06
4.42806e-05
5.13957e-06
4.51855e-05
5.32912e-06
4.60139e-05
5.40411e-06
4.67696e-05
5.94413e-06
4.74166e-05
5.75812e-06
4.79511e-05
5.55857e-06
4.83889e-05
5.60018e-06
4.87284e-05
6.11503e-06
4.89917e-05
8.38734e-06
4.91669e-05
1.03365e-05
4.92147e-05
1.21615e-05
4.91144e-05
1.20905e-05
4.88387e-05
1.13138e-05
4.84328e-05
9.4411e-06
4.79313e-05
6.78865e-06
4.73831e-05
5.26768e-06
4.68129e-05
5.33902e-06
4.62329e-05
6.76878e-06
4.56413e-05
9.62986e-06
4.50438e-05
1.20582e-05
4.44541e-05
1.36489e-05
4.38789e-05
1.47796e-05
4.33438e-05
1.47136e-05
4.28115e-05
1.44769e-05
4.22431e-05
1.45672e-05
4.16212e-05
1.44373e-05
1.41268e-05
4.09167e-05
3.93249e-05
6.96464e-06
3.97533e-05
5.57555e-06
4.0374e-05
4.61956e-06
4.1144e-05
4.0514e-06
4.20117e-05
3.84607e-06
4.29306e-05
3.7699e-06
4.38696e-05
4.20057e-06
4.47884e-05
4.41029e-06
4.5661e-05
4.53151e-06
4.64879e-05
5.11723e-06
4.72279e-05
5.01813e-06
4.78719e-05
4.91455e-06
4.84317e-05
5.04034e-06
4.89043e-05
5.64251e-06
4.93175e-05
7.9741e-06
4.96583e-05
9.9957e-06
4.98861e-05
1.19337e-05
4.99669e-05
1.20097e-05
4.98631e-05
1.14175e-05
4.96085e-05
9.69578e-06
4.92275e-05
7.16963e-06
4.87773e-05
5.71784e-06
4.82964e-05
5.81997e-06
4.78095e-05
7.25564e-06
4.73282e-05
1.01111e-05
4.68585e-05
1.2528e-05
4.6412e-05
1.40953e-05
4.59964e-05
1.51952e-05
4.5633e-05
1.50771e-05
4.52816e-05
1.48282e-05
4.49046e-05
1.49441e-05
4.44812e-05
1.48607e-05
1.4632e-05
4.3976e-05
3.93078e-05
6.76166e-06
3.96855e-05
5.19792e-06
4.02319e-05
4.07317e-06
4.09199e-05
3.36341e-06
4.17121e-05
3.0538e-06
4.25727e-05
2.9093e-06
4.34762e-05
3.29704e-06
4.43853e-05
3.50119e-06
4.52739e-05
3.64294e-06
4.6141e-05
4.25016e-06
4.69426e-05
4.21652e-06
4.7666e-05
4.19111e-06
4.83199e-05
4.38649e-06
4.88994e-05
5.06305e-06
4.94365e-05
7.43698e-06
4.99173e-05
9.51485e-06
5.03009e-05
1.15501e-05
5.05431e-05
1.17675e-05
5.05981e-05
1.13625e-05
5.04887e-05
9.80517e-06
5.023e-05
7.42836e-06
4.98843e-05
6.06355e-06
4.95007e-05
6.20354e-06
4.91147e-05
7.64165e-06
4.87495e-05
1.04764e-05
4.84114e-05
1.2866e-05
4.81107e-05
1.43961e-05
4.78558e-05
1.54501e-05
4.76638e-05
1.5269e-05
4.74931e-05
1.49989e-05
4.73076e-05
1.51297e-05
4.7084e-05
1.50842e-05
1.49343e-05
4.67817e-05
3.92945e-05
6.57203e-06
3.96314e-05
4.86102e-06
4.01161e-05
3.58843e-06
4.07326e-05
2.74692e-06
4.14547e-05
2.33171e-06
4.22554e-05
2.10862e-06
4.31148e-05
2.43763e-06
4.39994e-05
2.61662e-06
4.48844e-05
2.75797e-06
4.57684e-05
3.36614e-06
4.66066e-05
3.37829e-06
4.73841e-05
3.41364e-06
4.81069e-05
3.66361e-06
4.8769e-05
4.40097e-06
4.94048e-05
6.80124e-06
5e-05
8.91956e-06
5.05141e-05
1.10361e-05
5.08956e-05
1.1386e-05
5.10921e-05
1.1166e-05
5.11172e-05
9.78009e-06
5.09769e-05
7.56865e-06
5.07364e-05
6.30403e-06
5.0453e-05
6.48699e-06
5.01705e-05
7.92412e-06
4.99224e-05
1.07245e-05
4.97156e-05
1.30728e-05
4.95589e-05
1.45528e-05
4.94618e-05
1.55473e-05
4.94376e-05
1.52932e-05
4.94435e-05
1.4993e-05
4.94454e-05
1.51277e-05
4.94185e-05
1.51111e-05
1.5035e-05
4.93179e-05
3.9284e-05
6.39291e-06
3.95882e-05
4.55678e-06
4.00222e-05
3.15452e-06
4.05775e-05
2.19156e-06
4.12366e-05
1.67257e-06
4.19799e-05
1.36537e-06
4.27924e-05
1.62514e-06
4.36444e-05
1.76458e-06
4.45133e-05
1.88911e-06
4.5398e-05
2.48145e-06
4.6254e-05
2.52225e-06
4.70652e-05
2.6024e-06
4.78361e-05
2.89272e-06
4.85594e-05
3.6777e-06
4.92707e-05
6.0899e-06
4.99563e-05
8.23397e-06
5.05761e-05
1.04164e-05
5.10739e-05
1.08881e-05
5.13927e-05
1.08472e-05
5.15381e-05
9.63474e-06
5.15081e-05
7.59859e-06
5.13691e-05
6.44309e-06
5.11839e-05
6.67217e-06
5.10032e-05
8.10474e-06
5.08691e-05
1.08586e-05
5.07892e-05
1.31527e-05
5.07712e-05
1.45708e-05
5.08253e-05
1.54931e-05
5.09617e-05
1.51569e-05
5.11366e-05
1.48181e-05
5.13184e-05
1.49459e-05
5.14809e-05
1.49486e-05
1.49397e-05
5.15762e-05
3.92757e-05
6.22208e-06
3.95538e-05
4.2787e-06
3.99461e-05
2.76217e-06
4.04501e-05
1.68764e-06
4.10543e-05
1.06835e-06
4.1745e-05
6.7462e-07
4.25116e-05
8.58535e-07
4.33281e-05
9.48135e-07
4.41739e-05
1.04328e-06
4.50488e-05
1.60658e-06
4.59093e-05
1.66169e-06
4.6739e-05
1.7727e-06
4.75412e-05
2.09057e-06
4.83077e-05
2.91115e-06
4.90748e-05
5.32286e-06
4.98291e-05
7.47967e-06
5.05316e-05
9.71392e-06
5.11236e-05
1.02961e-05
5.15446e-05
1.04262e-05
5.1794e-05
9.38528e-06
5.18633e-05
7.52934e-06
5.18182e-05
6.48819e-06
5.17256e-05
6.7647e-06
5.16415e-05
8.18889e-06
5.16148e-05
1.08854e-05
5.1654e-05
1.31135e-05
5.17662e-05
1.44586e-05
5.19621e-05
1.52971e-05
5.22488e-05
1.48702e-05
5.25823e-05
1.44846e-05
5.29332e-05
1.45951e-05
5.32745e-05
1.46072e-05
1.46581e-05
5.35561e-05
3.92692e-05
6.05776e-06
3.95264e-05
4.02148e-06
3.9885e-05
2.40352e-06
4.03464e-05
1.22634e-06
4.09038e-05
5.10877e-07
4.15483e-05
3.01334e-08
4.22726e-05
1.34239e-07
4.30539e-05
1.66851e-07
4.38739e-05
2.23269e-07
4.47331e-05
7.47372e-07
4.55896e-05
8.05176e-07
4.64269e-05
9.35403e-07
4.72477e-05
1.26983e-06
4.80432e-05
2.11561e-06
4.88494e-05
4.51667e-06
4.96539e-05
6.6752e-06
5.04188e-05
8.949e-06
5.10843e-05
9.63052e-06
5.1588e-05
9.92247e-06
5.19247e-05
9.04864e-06
5.20801e-05
7.37397e-06
5.21189e-05
6.44933e-06
5.21106e-05
6.77302e-06
5.21147e-05
8.18475e-06
5.21861e-05
1.0814e-05
5.23343e-05
1.29653e-05
5.25656e-05
1.42273e-05
5.28915e-05
1.49713e-05
5.3316e-05
1.44456e-05
5.37952e-05
1.40054e-05
5.43017e-05
1.40886e-05
5.48085e-05
1.41005e-05
1.42029e-05
5.52636e-05
3.92641e-05
5.89854e-06
3.95048e-05
3.78075e-06
3.98365e-05
2.07185e-06
4.02631e-05
7.99712e-07
4.07818e-05
-7.75841e-09
4.13868e-05
-5.7496e-07
4.20739e-05
-5.52842e-07
4.28229e-05
-5.8208e-07
4.36173e-05
-5.71217e-07
4.44586e-05
-9.38647e-08
4.53062e-05
-4.24592e-08
4.6144e-05
9.75898e-08
4.69743e-05
4.39585e-07
4.77879e-05
1.30202e-06
4.862e-05
3.68451e-06
4.94593e-05
5.8359e-06
5.02692e-05
8.13912e-06
5.099e-05
8.90973e-06
5.15581e-05
9.35435e-06
5.19652e-05
8.64155e-06
5.21927e-05
7.14644e-06
5.23039e-05
6.33813e-06
5.23694e-05
6.7075e-06
5.24517e-05
8.10248e-06
5.26101e-05
1.06556e-05
5.28552e-05
1.27202e-05
5.31929e-05
1.38896e-05
5.3635e-05
1.45292e-05
5.41832e-05
1.38975e-05
5.47934e-05
1.33952e-05
5.54404e-05
1.34416e-05
5.6097e-05
1.34438e-05
1.35895e-05
5.67105e-05
3.92602e-05
5.74323e-06
3.94881e-05
3.55282e-06
3.97986e-05
1.76136e-06
4.01977e-05
4.0065e-07
4.0685e-05
-4.95077e-07
4.12578e-05
-1.14773e-06
4.19136e-05
-1.20869e-06
4.26346e-05
-1.30303e-06
4.34059e-05
-1.34259e-06
4.42295e-05
-9.1743e-07
4.50663e-05
-8.79301e-07
4.59006e-05
-7.3667e-07
4.67343e-05
-3.94118e-07
4.7558e-05
4.78359e-07
4.84059e-05
2.83661e-06
4.92676e-05
4.97416e-06
5.01079e-05
7.29883e-06
5.0868e-05
8.14963e-06
5.1484e-05
8.73832e-06
5.19457e-05
8.17991e-06
5.22312e-05
6.86087e-06
5.24023e-05
6.16706e-06
5.25301e-05
6.57967e-06
5.26791e-05
7.95352e-06
5.29122e-05
1.04225e-05
5.32411e-05
1.23913e-05
5.36713e-05
1.34594e-05
5.42151e-05
1.39854e-05
5.48717e-05
1.32409e-05
5.55972e-05
1.26697e-05
5.63682e-05
1.26706e-05
5.71577e-05
1.26543e-05
1.28347e-05
5.79125e-05
3.92573e-05
5.59082e-06
3.94756e-05
3.33453e-06
3.977e-05
1.46695e-06
4.01479e-05
2.27188e-08
4.0611e-05
-9.58156e-07
4.11585e-05
-1.69522e-06
4.17895e-05
-1.83976e-06
4.24878e-05
-2.00132e-06
4.324e-05
-2.0947e-06
4.4048e-05
-1.72547e-06
4.48743e-05
-1.70556e-06
4.57032e-05
-1.56559e-06
4.65366e-05
-1.22756e-06
4.73647e-05
-3.49725e-07
4.82206e-05
1.98067e-06
4.90951e-05
4.09974e-06
4.99538e-05
6.44004e-06
5.07397e-05
7.36374e-06
5.13891e-05
8.08896e-06
5.18906e-05
7.67836e-06
5.22205e-05
6.53099e-06
5.24388e-05
5.94878e-06
5.26169e-05
6.40158e-06
5.28205e-05
7.74989e-06
5.31156e-05
1.01274e-05
5.35147e-05
1.19923e-05
5.40232e-05
1.29508e-05
5.46536e-05
1.33551e-05
5.54029e-05
1.24916e-05
5.62274e-05
1.18452e-05
5.71054e-05
1.17926e-05
5.801e-05
1.17497e-05
1.19568e-05
5.8888e-05
3.92553e-05
5.44043e-06
3.94667e-05
3.12309e-06
3.97495e-05
1.1841e-06
4.01122e-05
-3.39962e-07
4.05578e-05
-1.40368e-06
4.10869e-05
-2.22435e-06
4.16998e-05
-2.4527e-06
4.23814e-05
-2.68289e-06
4.3119e-05
-2.83232e-06
4.39149e-05
-2.52135e-06
4.47322e-05
-2.5229e-06
4.55556e-05
-2.389e-06
4.63868e-05
-2.05871e-06
4.72154e-05
-1.17832e-06
4.80735e-05
1.12254e-06
4.89529e-05
3.22039e-06
4.98205e-05
5.57247e-06
5.06208e-05
6.56343e-06
5.12907e-05
7.419e-06
5.18189e-05
7.15017e-06
5.21802e-05
6.16974e-06
5.24333e-05
5.69567e-06
5.26496e-05
6.18529e-06
5.28958e-05
7.50368e-06
5.32401e-05
9.7831e-06
5.36959e-05
1.15364e-05
5.42686e-05
1.23781e-05
5.49706e-05
1.26531e-05
5.57971e-05
1.16651e-05
5.67043e-05
1.09379e-05
5.76721e-05
1.08248e-05
5.86738e-05
1.07479e-05
1.0974e-05
5.96566e-05
3.9254e-05
5.29126e-06
3.94612e-05
2.91598e-06
3.97366e-05
9.08634e-07
4.00895e-05
-6.92879e-07
4.05239e-05
-1.83802e-06
4.10414e-05
-2.74191e-06
4.1643e-05
-3.05424e-06
4.2314e-05
-3.35393e-06
4.30424e-05
-3.56075e-06
4.38302e-05
-3.30915e-06
4.46412e-05
-3.33384e-06
4.54598e-05
-3.20767e-06
4.62877e-05
-2.88656e-06
4.7114e-05
-2.0046e-06
4.79697e-05
2.66774e-07
4.88478e-05
2.34236e-06
4.97161e-05
4.70414e-06
5.05212e-05
5.75836e-06
5.12007e-05
6.73951e-06
5.17436e-05
6.60724e-06
5.21242e-05
5.78918e-06
5.24002e-05
5.41957e-06
5.26431e-05
5.94246e-06
5.29201e-05
7.22665e-06
5.33013e-05
9.4019e-06
5.38009e-05
1.10368e-05
5.44242e-05
1.17548e-05
5.51834e-05
1.18939e-05
5.60719e-05
1.07767e-05
5.70459e-05
9.96391e-06
5.80865e-05
9.78421e-06
5.91675e-05
9.66694e-06
9.90515e-06
6.02364e-05
3.92536e-05
5.14256e-06
3.94587e-05
2.71082e-06
3.97308e-05
6.36621e-07
4.00791e-05
-1.04127e-06
4.05085e-05
-2.26736e-06
4.10211e-05
-3.25454e-06
4.1618e-05
-3.65111e-06
4.22848e-05
-4.02077e-06
4.30095e-05
-4.28547e-06
4.37936e-05
-4.09322e-06
4.4601e-05
-4.14124e-06
4.54161e-05
-4.02274e-06
4.624e-05
-3.71048e-06
4.70616e-05
-2.82617e-06
4.7911e-05
-5.82637e-07
4.87822e-05
1.47115e-06
4.96443e-05
3.84201e-06
5.04458e-05
4.95693e-06
5.11251e-05
6.0602e-06
5.16721e-05
6.06021e-06
5.20609e-05
5.40037e-06
5.23489e-05
5.13161e-06
5.26072e-05
5.68417e-06
5.29039e-05
6.92994e-06
5.33104e-05
8.99535e-06
5.38417e-05
1.05055e-05
5.45027e-05
1.10937e-05
5.53054e-05
1.10912e-05
5.62413e-05
9.8408e-06
5.72668e-05
8.93846e-06
5.83639e-05
8.68709e-06
5.95068e-05
8.52407e-06
8.76832e-06
6.06436e-05
3.92539e-05
4.99357e-06
3.94594e-05
2.50527e-06
3.97318e-05
3.64201e-07
4.00809e-05
-1.3903e-06
4.05113e-05
-2.69778e-06
4.10256e-05
-3.76889e-06
4.16245e-05
-4.25e-06
4.22934e-05
-4.68969e-06
4.30199e-05
-5.01191e-06
4.38044e-05
-4.87781e-06
4.4611e-05
-4.94778e-06
4.54234e-05
-4.83514e-06
4.62425e-05
-4.52961e-06
4.70567e-05
-3.64039e-06
4.78958e-05
-1.42165e-06
4.87549e-05
6.12044e-07
4.96043e-05
2.99252e-06
5.03945e-05
4.16682e-06
5.10648e-05
5.38984e-06
5.16063e-05
5.51871e-06
5.19932e-05
5.01347e-06
5.22828e-05
4.84205e-06
5.25463e-05
5.42067e-06
5.28523e-05
6.62388e-06
5.32736e-05
8.5741e-06
5.38253e-05
9.95381e-06
5.45122e-05
1.04068e-05
5.53457e-05
1.02577e-05
5.63153e-05
8.87119e-06
5.73775e-05
7.87627e-06
5.85154e-05
7.54921e-06
5.97033e-05
7.33616e-06
7.58129e-06
6.08903e-05
3.92549e-05
4.84353e-06
3.94632e-05
2.29695e-06
3.974e-05
8.74449e-08
4.00949e-05
-1.74518e-06
4.05326e-05
-3.13545e-06
4.10552e-05
-4.29157e-06
4.16628e-05
-4.85752e-06
4.23399e-05
-5.36677e-06
4.30731e-05
-5.74515e-06
4.38619e-05
-5.66663e-06
4.46696e-05
-5.75548e-06
4.54795e-05
-5.64498e-06
4.6292e-05
-5.34216e-06
4.70954e-05
-4.44377e-06
4.79193e-05
-2.24552e-06
4.87605e-05
-2.29189e-07
4.95908e-05
2.16223e-06
5.03622e-05
3.39544e-06
5.10154e-05
4.73659e-06
5.15425e-05
4.99159e-06
5.19183e-05
4.63775e-06
5.22e-05
4.5603e-06
5.24593e-05
5.16133e-06
5.27654e-05
6.31782e-06
5.31918e-05
8.14772e-06
5.37539e-05
9.39168e-06
5.44558e-05
9.70491e-06
5.53083e-05
9.40525e-06
5.62987e-05
7.88076e-06
5.73836e-05
6.79131e-06
5.85471e-05
6.38571e-06
5.97638e-05
6.11951e-06
6.36135e-06
6.09837e-05
3.92568e-05
4.69159e-06
3.94705e-05
2.08329e-06
3.97557e-05
-1.97803e-07
4.01219e-05
-2.11141e-06
4.05732e-05
-3.58675e-06
4.1111e-05
-4.82934e-06
4.17337e-05
-5.48021e-06
4.24247e-05
-6.05775e-06
4.31691e-05
-6.48961e-06
4.39649e-05
-6.46246e-06
4.47746e-05
-6.5651e-06
4.55805e-05
-6.45094e-06
4.63832e-05
-6.14482e-06
4.71706e-05
-5.23123e-06
4.79732e-05
-3.04812e-06
4.87898e-05
-1.04574e-06
4.95937e-05
1.35828e-06
5.03388e-05
2.65042e-06
5.0967e-05
4.10834e-06
5.14715e-05
4.48707e-06
5.18276e-05
4.28167e-06
5.20931e-05
4.29482e-06
5.23399e-05
4.91447e-06
5.26377e-05
6.02002e-06
5.30609e-05
7.7246e-06
5.36245e-05
8.82807e-06
5.43317e-05
8.99774e-06
5.51922e-05
8.54472e-06
5.61913e-05
6.88169e-06
5.72856e-05
5.69702e-06
5.846e-05
5.21123e-06
5.96896e-05
4.88998e-06
5.12539e-06
6.09255e-05
3.92596e-05
4.53682e-06
3.94815e-05
1.86148e-06
3.97798e-05
-4.96104e-07
4.01632e-05
-2.49488e-06
4.06349e-05
-4.05837e-06
4.11946e-05
-5.38904e-06
4.18387e-05
-6.12436e-06
4.25487e-05
-6.76774e-06
4.33077e-05
-7.24864e-06
4.41118e-05
-7.26654e-06
4.49222e-05
-7.37553e-06
4.57208e-05
-7.24953e-06
4.6508e-05
-6.93196e-06
4.72722e-05
-5.99549e-06
4.80455e-05
-3.82141e-06
4.8829e-05
-1.82921e-06
4.95984e-05
5.8889e-07
5.03088e-05
1.93995e-06
5.09043e-05
3.51294e-06
5.13784e-05
4.01287e-06
5.17072e-05
3.95289e-06
5.1949e-05
4.05304e-06
5.21762e-05
4.68724e-06
5.24588e-05
5.7375e-06
5.28715e-05
7.31189e-06
5.34288e-05
8.27069e-06
5.41326e-05
8.29401e-06
5.49912e-05
7.68607e-06
5.59874e-05
5.88554e-06
5.7078e-05
4.60639e-06
5.82491e-05
4.04012e-06
5.94758e-05
3.66326e-06
3.89014e-06
6.07111e-05
3.92636e-05
4.37807e-06
3.94969e-05
1.62819e-06
3.98134e-05
-8.12628e-07
4.02207e-05
-2.90212e-06
4.07198e-05
-4.55746e-06
4.13084e-05
-5.97764e-06
4.19799e-05
-6.79591e-06
4.2713e-05
-7.50084e-06
4.34883e-05
-8.02397e-06
4.42997e-05
-8.07791e-06
4.51072e-05
-8.183e-06
4.5892e-05
-8.03431e-06
4.66549e-05
-7.69494e-06
4.73858e-05
-6.72637e-06
4.81192e-05
-4.55481e-06
4.88592e-05
-2.5692e-06
4.95845e-05
-1.36344e-07
5.02514e-05
1.27296e-06
5.08061e-05
2.95827e-06
5.12427e-05
3.57626e-06
5.15375e-05
3.6581e-06
5.17494e-05
3.84118e-06
5.19512e-05
4.48545e-06
5.22128e-05
5.47591e-06
5.26092e-05
6.9154e-06
5.31539e-05
7.72605e-06
5.38465e-05
7.60139e-06
5.4694e-05
6.83853e-06
5.56761e-05
4.90345e-06
5.67503e-05
3.53218e-06
5.79038e-05
2.88665e-06
5.9112e-05
2.45506e-06
2.6724e-06
6.03298e-05
3.92689e-05
4.214e-06
3.95176e-05
1.37952e-06
3.98584e-05
-1.1534e-06
4.02968e-05
-3.34049e-06
4.08311e-05
-5.09176e-06
4.14555e-05
-6.60213e-06
4.21597e-05
-7.50005e-06
4.29184e-05
-8.25962e-06
4.37094e-05
-8.81491e-06
4.4524e-05
-8.89252e-06
4.53211e-05
-8.9801e-06
4.60818e-05
-8.79501e-06
4.68082e-05
-8.42129e-06
4.7492e-05
-7.41021e-06
4.8172e-05
-5.23485e-06
4.88558e-05
-3.25301e-06
4.95258e-05
-8.0629e-07
5.01395e-05
6.59238e-07
5.06456e-05
2.45222e-06
5.1038e-05
3.1838e-06
5.12933e-05
3.40284e-06
5.14705e-05
3.66399e-06
5.16426e-05
4.31331e-06
5.18792e-05
5.23928e-06
5.22552e-05
6.53945e-06
5.27819e-05
7.19935e-06
5.34567e-05
6.92656e-06
5.42846e-05
6.01062e-06
5.52418e-05
3.94621e-06
5.62869e-05
2.48712e-06
5.74083e-05
1.76525e-06
5.8582e-05
1.28139e-06
1.4893e-06
5.97651e-05
3.9276e-05
4.04287e-06
3.95449e-05
1.11063e-06
3.99171e-05
-1.5256e-06
4.0395e-05
-3.8184e-06
4.09727e-05
-5.6695e-06
4.16398e-05
-7.26921e-06
4.23804e-05
-8.24066e-06
4.3165e-05
-9.04417e-06
4.39674e-05
-9.61733e-06
4.47769e-05
-9.70207e-06
4.55516e-05
-9.75475e-06
4.62732e-05
-9.51658e-06
4.69458e-05
-9.09397e-06
4.7565e-05
-8.02932e-06
4.8175e-05
-5.84488e-06
4.87876e-05
-3.86559e-06
4.93896e-05
-1.40835e-06
4.99397e-05
1.09176e-07
5.03895e-05
2.00237e-06
5.07322e-05
2.84111e-06
5.0944e-05
3.19109e-06
5.10836e-05
3.52436e-06
5.12238e-05
4.17308e-06
5.14333e-05
5.02982e-06
5.1786e-05
6.18675e-06
5.22909e-05
6.69449e-06
5.29422e-05
6.27521e-06
5.37426e-05
5.21026e-06
5.46644e-05
3.02442e-06
5.56675e-05
1.48403e-06
5.6742e-05
6.9067e-07
5.78647e-05
1.58749e-07
3.58479e-07
5.89955e-05
3.92853e-05
3.86243e-06
3.95805e-05
8.15471e-07
3.99928e-05
-1.93791e-06
4.05199e-05
-4.34548e-06
4.11497e-05
-6.29938e-06
4.18653e-05
-7.98479e-06
4.2644e-05
-9.01935e-06
4.34508e-05
-9.85094e-06
4.42557e-05
-1.04222e-05
4.50462e-05
-1.04926e-05
4.57804e-05
-1.04889e-05
4.6442e-05
-1.01782e-05
4.70389e-05
-9.6908e-06
4.75714e-05
-8.56184e-06
4.80916e-05
-6.3651e-06
4.86158e-05
-4.38976e-06
4.91363e-05
-1.92886e-06
4.96121e-05
-3.66638e-07
4.99989e-05
1.61553e-06
5.02878e-05
2.55228e-06
5.04541e-05
3.02476e-06
5.05556e-05
3.42286e-06
5.0664e-05
4.06468e-06
5.08462e-05
4.84757e-06
5.11748e-05
5.85819e-06
5.16554e-05
6.21392e-06
5.22786e-05
5.65198e-06
5.30441e-05
4.44481e-06
5.39199e-05
2.14859e-06
5.4868e-05
5.35953e-07
5.58805e-05
-3.21873e-07
5.6935e-05
-8.95708e-07
-7.01734e-07
5.79952e-05
3.92976e-05
3.66973e-06
3.96268e-05
4.86286e-07
4.00898e-05
-2.40095e-06
4.06771e-05
-4.93275e-06
4.13678e-05
-6.99015e-06
4.21361e-05
-8.75303e-06
4.29508e-05
-9.83406e-06
4.37708e-05
-1.06709e-05
4.45624e-05
-1.12139e-05
4.53128e-05
-1.12429e-05
4.59812e-05
-1.11574e-05
4.65555e-05
-1.07525e-05
4.70489e-05
-1.01842e-05
4.74689e-05
-8.98183e-06
4.78769e-05
-6.77313e-06
4.8294e-05
-4.8069e-06
4.87189e-05
-2.35376e-06
4.91105e-05
-7.58172e-07
4.9429e-05
1.29697e-06
4.96621e-05
2.31924e-06
4.97837e-05
2.90308e-06
4.98494e-05
3.35719e-06
4.99288e-05
3.98527e-06
5.00863e-05
4.6901e-06
5.03918e-05
5.55262e-06
5.08472e-05
5.75855e-06
5.14387e-05
5.0605e-06
5.21625e-05
3.72103e-06
5.29819e-05
1.32912e-06
5.38617e-05
-3.43805e-07
5.47964e-05
-1.25663e-06
5.57649e-05
-1.86414e-06
-1.67235e-06
5.67355e-05
3.93139e-05
3.46073e-06
3.96872e-05
1.13005e-07
4.02139e-05
-2.92774e-06
4.08737e-05
-5.59249e-06
4.16333e-05
-7.74975e-06
4.2455e-05
-9.57472e-06
4.32978e-05
-1.06769e-05
4.41141e-05
-1.14873e-05
4.48679e-05
-1.19677e-05
4.55477e-05
-1.19227e-05
4.61168e-05
-1.17265e-05
4.65696e-05
-1.12053e-05
4.69267e-05
-1.05412e-05
4.72049e-05
-9.26008e-06
4.74768e-05
-7.04501e-06
4.7768e-05
-5.09809e-06
4.8084e-05
-2.6698e-06
4.83829e-05
-1.057e-06
4.86303e-05
1.04954e-06
4.88086e-05
2.14096e-06
4.88897e-05
2.82194e-06
4.89252e-05
3.32167e-06
4.89816e-05
3.92886e-06
4.91195e-05
4.55225e-06
4.94054e-05
5.26673e-06
4.98363e-05
5.32767e-06
5.03935e-05
4.50328e-06
5.10693e-05
3.04517e-06
5.18221e-05
5.76349e-07
5.262e-05
-1.14169e-06
5.34607e-05
-2.09736e-06
5.43247e-05
-2.72806e-06
-2.53373e-06
5.5186e-05
3.93358e-05
3.22982e-06
3.97664e-05
-3.17611e-07
4.03729e-05
-3.5342e-06
4.11182e-05
-6.33785e-06
4.19522e-05
-8.58376e-06
4.28222e-05
-1.04447e-05
4.36761e-05
-1.15308e-05
4.4461e-05
-1.22722e-05
4.51408e-05
-1.26475e-05
4.5709e-05
-1.24908e-05
4.61362e-05
-1.21537e-05
4.64268e-05
-1.14959e-05
4.66107e-05
-1.07252e-05
4.67165e-05
-9.36583e-06
4.68286e-05
-7.15708e-06
4.69764e-05
-5.24591e-06
4.71726e-05
-2.86601e-06
4.73732e-05
-1.25759e-06
4.75501e-05
8.72661e-07
4.76783e-05
2.01271e-06
4.77269e-05
2.77331e-06
4.77418e-05
3.30682e-06
4.77847e-05
3.88599e-06
4.7911e-05
4.42591e-06
4.81828e-05
4.99491e-06
4.85916e-05
4.91889e-06
4.91132e-05
3.9817e-06
4.97356e-05
2.42282e-06
5.04115e-05
-9.95486e-08
5.11138e-05
-1.84402e-06
5.18439e-05
-2.82747e-06
5.25844e-05
-3.46858e-06
-3.26602e-06
5.33167e-05
3.93657e-05
2.96904e-06
3.98712e-05
-8.23116e-07