/*--------------------------------*- C++ -*----------------------------------*\
  =========                 |
  \\      /  F ield         | OpenFOAM: The Open Source CFD Toolbox
   \\    /   O peration     | Website:  https://openfoam.org
    \\  /    A nd           | Version:  6
     \\/     M anipulation  |
\*---------------------------------------------------------------------------*/
FoamFile
{
    version     2.0;
    format      ascii;
    class       volVectorField;
    location    "3200";
    object      U;
}
// * * * * * * * * * * * * * * * * * * * * * * * * * * * * * * * * * * * * * //

dimensions      [0 1 -1 0 0 0 0];

internalField   nonuniform List<vector> 
3773
(
(0.0645025 0.664902 3.44045e-20)
(0.0374483 0.470634 -4.03453e-20)
(0.0118126 0.322397 -1.34546e-19)
(0.00602395 0.236043 5.17269e-20)
(0.00525495 0.191901 1.62807e-20)
(0.0044362 0.166177 -1.88073e-20)
(0.00301447 0.147877 1.13336e-20)
(0.00179386 0.133314 -3.36067e-21)
(0.000656108 0.122969 0)
(-0.000680989 0.113349 0)
(-0.00132954 0.104781 1.94258e-20)
(-0.00173212 0.0995804 5.06264e-20)
(-0.00259693 0.0961783 -3.32723e-20)
(-0.00447539 0.0944853 2.67324e-20)
(-0.0077093 0.0902686 -7.74525e-20)
(-0.0105339 0.0814173 -1.08523e-19)
(-0.0115588 0.0701788 -5.40449e-20)
(-0.0105836 0.0601306 -1.14026e-19)
(-0.00857258 0.0538116 -3.87624e-20)
(-0.00620921 0.0506035 2.05848e-20)
(-0.00400868 0.0515812 -2.17577e-20)
(-0.00286455 0.0562369 -1.09433e-20)
(-0.00355609 0.0616207 1.08681e-19)
(-0.0063853 0.0654249 -5.24976e-21)
(-0.0106715 0.0639905 -1.36416e-19)
(-0.0142561 0.0568493 2.27151e-20)
(-0.0160821 0.0475197 -8.27606e-20)
(-0.0161251 0.0375357 -7.61411e-20)
(-0.0148548 0.028727 -6.60293e-20)
(-0.0131109 0.0221918 -1.78254e-20)
(-0.0112195 0.0169255 -5.7443e-20)
(-0.00928911 0.0125712 7.80289e-20)
(-0.00754527 0.00943694 -8.76655e-20)
(0.175269 0.990754 0)
(0.18373 0.879144 -4.64745e-19)
(0.117219 0.725 1.92309e-19)
(0.075171 0.598401 3.33275e-20)
(0.0522671 0.512861 -1.92152e-21)
(0.0384237 0.45423 -4.95509e-20)
(0.028322 0.409944 5.52732e-20)
(0.0207025 0.374317 -3.80094e-20)
(0.0146366 0.346912 -3.55097e-20)
(0.00920248 0.322697 1.43714e-20)
(0.00512511 0.301668 1.27161e-20)
(0.00172593 0.28649 2.01712e-20)
(-0.00206579 0.274907 1.79208e-20)
(-0.00697288 0.265999 -4.07526e-20)
(-0.0134702 0.253499 3.30379e-20)
(-0.019489 0.234184 -8.64135e-21)
(-0.0231013 0.210598 2.81189e-20)
(-0.0233563 0.188319 9.82967e-20)
(-0.0210592 0.172248 2.64394e-20)
(-0.0174546 0.162759 2.65099e-20)
(-0.013892 0.161608 0)
(-0.0119946 0.167377 -8.56254e-20)
(-0.013064 0.174631 2.85938e-20)
(-0.0174723 0.178986 -1.49753e-19)
(-0.0243871 0.175007 1.71631e-19)
(-0.0312959 0.161365 -3.93356e-20)
(-0.0362608 0.142306 -5.8967e-20)
(-0.0384225 0.120433 3.81406e-20)
(-0.0378945 0.0990719 -8.33662e-20)
(-0.0355678 0.0809907 8.18596e-20)
(-0.0321178 0.0655392 1.66817e-20)
(-0.028094 0.0522245 5.57196e-20)
(-0.0240189 0.0416664 2.55563e-19)
(0.169191 1.02748 -7.26591e-19)
(0.240509 1.01741 4.45178e-19)
(0.200693 0.938572 1.73797e-19)
(0.152377 0.84046 -1.14577e-19)
(0.115455 0.754686 1.59513e-21)
(0.0888135 0.686191 4.9411e-20)
(0.0685255 0.630165 1.00665e-20)
(0.0528104 0.5831 0)
(0.0402766 0.54492 -2.87577e-20)
(0.0295183 0.511132 3.15512e-20)
(0.0208126 0.481561 -1.28566e-20)
(0.0134219 0.458483 0)
(0.00618759 0.439647 -2.14714e-20)
(-0.00165179 0.423794 0)
(-0.0106534 0.404563 -3.41914e-20)
(-0.0192198 0.378575 5.95528e-20)
(-0.0255024 0.34779 5.92907e-20)
(-0.0282163 0.317831 -9.33031e-22)
(-0.0276298 0.294443 -5.56284e-20)
(-0.0249664 0.279039 5.60569e-20)
(-0.0218383 0.273869 -2.84065e-20)
(-0.020145 0.277103 -6.45805e-23)
(-0.0213857 0.282377 8.05169e-20)
(-0.0260028 0.284568 4.68699e-20)
(-0.0333399 0.277975 -4.7594e-20)
(-0.0414423 0.260777 -8.26739e-20)
(-0.0483436 0.236551 -3.39665e-20)
(-0.0527622 0.207743 2.50845e-19)
(-0.0542568 0.177955 2.62539e-19)
(-0.05319 0.150816 1.3533e-20)
(-0.0501343 0.126392 1.944e-19)
(-0.0457723 0.10453 -8.13099e-20)
(-0.0407648 0.0862764 -1.16864e-19)
(0.132674 1.02121 1.29083e-18)
(0.242102 1.05323 0)
(0.245017 1.03581 -1.53584e-19)
(0.212136 0.982376 3.08769e-20)
(0.174693 0.918758 -1.3478e-20)
(0.141852 0.858465 6.81103e-20)
(0.114294 0.803879 -6.56514e-20)
(0.0916568 0.754952 0)
(0.0729842 0.712959 0)
(0.0568496 0.674879 -2.20517e-20)
(0.0433134 0.640789 -6.87268e-21)
(0.0316594 0.612687 4.72976e-20)
(0.0208227 0.588687 -9.09053e-20)
(0.0101251 0.567599 2.21966e-20)
(-0.00113483 0.543606 0)
(-0.0118926 0.513529 1.36299e-19)
(-0.0207188 0.478693 0)
(-0.0262606 0.444159 -1.2271e-19)
(-0.0283624 0.415655 2.86844e-20)
(-0.0279391 0.39523 -3.35924e-22)
(-0.0264491 0.385537 -2.90482e-20)
(-0.0257511 0.384759 1.41507e-20)
(-0.0273459 0.386425 2.62084e-20)
(-0.0317606 0.385327 -3.19629e-21)
(-0.0386658 0.375948 4.6789e-20)
(-0.0467919 0.356279 -1.23025e-22)
(-0.0545437 0.329153 -4.29035e-20)
(-0.0606188 0.296466 -2.30262e-20)
(-0.0642125 0.261499 -1.23857e-19)
(-0.0651403 0.22805 -2.52683e-19)
(-0.0636452 0.196626 4.14003e-20)
(-0.0602675 0.167472 6.50068e-20)
(-0.0556097 0.142131 1.62112e-19)
(0.102402 1.01407 -5.75874e-19)
(0.22056 1.05431 1.76934e-20)
(0.255224 1.07097 -1.7758e-20)
(0.24463 1.05518 -3.05994e-20)
(0.216956 1.01951 2.62161e-20)
(0.185942 0.976703 -2.33622e-20)
(0.15637 0.932399 4.11855e-20)
(0.130064 0.889091 -3.51114e-20)
(0.107203 0.849363 3.53284e-20)
(0.0868819 0.811852 7.40957e-21)
(0.0692891 0.777126 -1.95559e-20)
(0.0538751 0.74711 -2.82973e-20)
(0.0397666 0.720481 4.85034e-20)
(0.0264073 0.696347 -4.17799e-20)
(0.0129796 0.669669 4.07221e-20)
(0.000173886 0.63761 -6.93256e-20)
(-0.0109887 0.600998 -3.18456e-20)
(-0.0192349 0.564207 2.50389e-19)
(-0.0241888 0.532531 1.54134e-19)
(-0.0264271 0.508296 0)
(-0.0270825 0.494421 0)
(-0.0278314 0.489344 0)
(-0.0301048 0.486947 0)
(-0.0345109 0.482256 -5.33538e-20)
(-0.0410145 0.470081 -9.44708e-20)
(-0.0488561 0.448403 0)
(-0.0568615 0.419502 1.98356e-19)
(-0.0639353 0.384732 -1.82904e-19)
(-0.0691734 0.346877 0)
(-0.0720543 0.309489 9.80788e-20)
(-0.0725093 0.273183 -2.32084e-19)
(-0.0708185 0.238439 -1.93981e-19)
(-0.067386 0.207219 -6.50367e-20)
(0.0795783 1.00896 -4.18113e-19)
(0.191757 1.04543 0)
(0.244376 1.07669 -1.46648e-20)
(0.25377 1.08583 6.83146e-20)
(0.239904 1.07463 -5.09884e-20)
(0.216175 1.05121 2.21754e-20)
(0.189381 1.02121 -6.35447e-20)
(0.163067 0.988028 0)
(0.13865 0.954903 0)
(0.116032 0.921803 0)
(0.0957558 0.889764 2.67259e-20)
(0.0775774 0.860726 -7.14217e-20)
(0.0608962 0.833979 3.81906e-21)
(0.0453145 0.809025 1.09357e-19)
(0.0299822 0.781678 -8.04311e-20)
(0.0153592 0.749506 -1.5312e-21)
(0.00215537 0.712971 -2.21774e-21)
(-0.00848104 0.675784 -1.59475e-19)
(-0.0160881 0.642647 -9.12577e-20)
(-0.0209638 0.615931 3.09187e-20)
(-0.0238883 0.598677 -2.96994e-20)
(-0.0263015 0.589689 5.96777e-20)
(-0.0295296 0.583434 0)
(-0.0342343 0.575338 7.00066e-22)
(-0.040605 0.560599 2.60676e-21)
(-0.0482233 0.537274 2.01362e-21)
(-0.0562609 0.507257 4.38727e-20)
(-0.0638904 0.471495 0)
(-0.0702731 0.432289 0)
(-0.0747569 0.392785 -1.89067e-19)
(-0.0770825 0.353483 1.7372e-19)
(-0.0772885 0.314909 0)
(-0.0755344 0.279294 0)
(0.0623218 1.00564 4.64116e-20)
(0.162844 1.03549 0)
(0.223078 1.0704 1.36352e-20)
(0.246905 1.09325 -4.07691e-20)
(0.246369 1.09974 1.12402e-20)
(0.232168 1.09329 8.78344e-20)
(0.21123 1.07785 -3.81658e-20)
(0.187881 1.05648 3.8337e-20)
(0.164423 1.03233 -1.67325e-20)
(0.141548 1.00614 -3.8357e-21)
(0.120201 0.979239 -2.70591e-20)
(0.100507 0.953526 -1.96576e-20)
(0.0821893 0.92884 3.70578e-21)
(0.0650438 0.905064 4.66011e-20)
(0.0482818 0.878864 8.36216e-20)
(0.0322386 0.84822 7.45683e-20)
(0.017407 0.813333 0)
(0.00481139 0.777305 1.36414e-19)
(-0.00506963 0.744211 3.14239e-20)
(-0.0123225 0.716342 -1.87254e-19)
(-0.0174121 0.69674 3.12266e-20)
(-0.021532 0.684599 8.88733e-22)
(-0.0258821 0.675075 -2.91771e-20)
(-0.0311422 0.664071 0)
(-0.0376572 0.647205 -1.53526e-19)
(-0.0452264 0.622653 1.92392e-19)
(-0.053274 0.592035 -4.55862e-20)
(-0.0612185 0.556015 1.30127e-19)
(-0.0683541 0.516504 -1.24337e-19)
(-0.0740346 0.476221 1.52171e-19)
(-0.0779327 0.435457 -3.77179e-20)
(-0.0799253 0.394651 2.26938e-19)
(-0.0799553 0.356147 -1.92243e-19)
(0.0494053 1.00362 3.73461e-19)
(0.136864 1.02714 0)
(0.198017 1.06041 -2.54783e-20)
(0.230597 1.08917 1.57996e-21)
(0.240738 1.1067 -2.18134e-20)
(0.235927 1.11304 -2.10661e-20)
(0.222117 1.11018 -3.87894e-20)
(0.203575 1.10022 0)
(0.18299 1.08566 1.66393e-20)
(0.161632 1.06756 -2.56505e-20)
(0.140754 1.04724 5.69239e-20)
(0.120828 1.02647 -3.57312e-20)
(0.101901 1.0055 0)
(0.0839805 0.984512 -2.09135e-20)
(0.0664145 0.960952 4.44526e-20)
(0.0494863 0.933197 -7.82369e-20)
(0.0335466 0.901258 7.27811e-20)
(0.0195091 0.867686 -1.70418e-19)
(0.00783877 0.835944 -3.22609e-20)
(-0.00139454 0.808177 1.60476e-19)
(-0.00839604 0.787333 0)
(-0.0141256 0.772972 -9.00606e-20)
(-0.0196433 0.760972 1.46386e-19)
(-0.0256141 0.747741 -5.70473e-20)
(-0.0324792 0.729334 1.02744e-19)
(-0.0401701 0.704062 3.67054e-21)
(-0.0482827 0.673335 0)
(-0.0564317 0.637634 -1.27426e-19)
(-0.0640511 0.598577 3.36123e-19)
(-0.070571 0.558496 -4.1379e-20)
(-0.0756827 0.517464 -3.96328e-20)
(-0.0791859 0.475772 4.62656e-20)
(-0.0808696 0.43576 1.5498e-19)
(0.0397249 1.00242 1.57286e-19)
(0.114678 1.02076 1.22861e-20)
(0.1729 1.05031 5.84162e-20)
(0.209659 1.08023 2.39063e-20)
(0.227259 1.10358 0)
(0.230379 1.11848 0)
(0.223587 1.12529 3.87743e-20)
(0.210584 1.12507 -3.43395e-20)
(0.194012 1.11949 6.62941e-20)
(0.17544 1.1095 -1.76869e-20)
(0.156279 1.09628 -4.40267e-20)
(0.137258 1.08133 6.61217e-21)
(0.118702 1.06513 7.84505e-22)
(0.100815 1.04805 -2.30273e-20)
(0.0831334 1.02823 -4.24543e-20)
(0.0659295 1.00439 -3.87797e-20)
(0.0494658 0.976409 1.53491e-19)
(0.0345554 0.946327 3.6332e-20)
(0.021638 0.917036 -3.30781e-20)
(0.0108982 0.890491 -6.30716e-20)
(0.0023341 0.869483 3.26939e-20)
(-0.00480067 0.853887 -9.28388e-20)
(-0.0114191 0.84029 6.11251e-20)
(-0.0181439 0.825605 0)
(-0.0254651 0.806324 -1.08927e-19)
(-0.0333892 0.780905 -9.91668e-20)
(-0.0416242 0.75058 0)
(-0.049928 0.715713 4.4874e-20)
(-0.0578543 0.677708 -3.94962e-19)
(-0.0649331 0.63857 0)
(-0.0709206 0.598189 -4.13758e-20)
(-0.0756028 0.556699 -1.18697e-19)
(-0.0786811 0.516362 1.68367e-19)
(0.0323658 1.00169 -3.00219e-19)
(0.096151 1.01604 -1.84479e-19)
(0.149535 1.04139 -9.50484e-20)
(0.187246 1.06994 -1.08448e-20)
(0.209363 1.09551 4.13705e-20)
(0.218456 1.1154 -5.94074e-20)
(0.217747 1.12893 3.8775e-20)
(0.210157 1.13628 -3.40095e-20)
(0.198011 1.1383 3.40478e-20)
(0.182932 1.1357 4.49932e-20)
(0.166336 1.12934 -1.54312e-20)
(0.149091 1.12041 5.20845e-20)
(0.131727 1.10944 -9.86807e-20)
(0.114609 1.09691 3.07206e-21)
(0.0974735 1.08152 4.54833e-20)
(0.0806056 1.06226 0)
(0.0642122 1.03892 -7.28474e-20)
(0.0490094 1.01309 0)
(0.0354057 0.987114 0)
(0.0236674 0.962741 6.79963e-20)
(0.0139458 0.942546 -3.32949e-20)
(0.00568662 0.926667 6.3672e-20)
(-0.00187276 0.91235 0)
(-0.00929267 0.897001 -5.93114e-20)
(-0.0170745 0.87754 5.41201e-20)
(-0.0252638 0.852574 1.57935e-19)
(-0.0336403 0.823173 0)
(-0.0420603 0.789627 -2.36706e-19)
(-0.0501684 0.753182 3.93834e-20)
(-0.0575919 0.715571 -1.80916e-19)
(-0.0641675 0.676553 2.18377e-19)
(-0.0697052 0.636126 -8.5237e-20)
(-0.0738716 0.596436 4.82667e-20)
(0.0266662 1.00123 2.87491e-19)
(0.0808054 1.01256 1.79367e-19)
(0.128637 1.03397 0)
(0.165229 1.05998 1.08912e-20)
(0.189517 1.08552 -9.04316e-22)
(0.202647 1.10775 -5.81907e-20)
(0.20672 1.12545 0)
(0.203882 1.13818 0)
(0.196019 1.14615 0)
(0.18464 1.14975 1.44171e-20)
(0.171045 1.14952 4.0576e-20)
(0.156137 1.14627 -5.59965e-20)
(0.140564 1.14053 -5.91459e-20)
(0.124801 1.13275 1.02147e-19)
(0.108779 1.12206 -1.01167e-21)
(0.0927975 1.1077 1.25313e-19)
(0.0770261 1.08938 -7.6283e-20)
(0.0620818 1.06826 3.81127e-20)
(0.0483353 1.04622 0)
(0.0361069 1.02476 -6.74998e-20)
(0.0256566 1.00621 3.30391e-20)
(0.0166013 0.990903 -3.20343e-20)
(0.00832856 0.976688 9.29302e-20)
(0.000354591 0.961425 -1.88284e-21)
(-0.00780533 0.942453 -5.52024e-20)
(-0.0162135 0.918524 -1.02981e-19)
(-0.0246968 0.890558 5.13138e-20)
(-0.0331758 0.858793 1.89621e-19)
(-0.041359 0.824353 3.74806e-19)
(-0.0489571 0.788748 1.3517e-19)
(-0.0558829 0.751653 -1.30425e-19)
(-0.0619869 0.712964 -4.41833e-20)
(-0.0669362 0.674697 9.2519e-20)
(0.0221691 1.00093 -1.39915e-19)
(0.0681028 1.00998 1.61455e-19)
(0.110335 1.02795 -2.05587e-20)
(0.144599 1.05105 5.47516e-21)
(0.169353 1.07529 2.00195e-20)
(0.184852 1.09805 7.57051e-20)
(0.19236 1.11793 3.51492e-20)
(0.193357 1.13414 -6.84209e-20)
(0.189276 1.14641 1.07196e-21)
(0.181424 1.15488 -1.44181e-20)
(0.170915 1.15976 -1.19598e-20)
(0.158604 1.16154 1.09314e-19)
(0.14518 1.16064 -3.37375e-20)
(0.131179 1.15746 -5.33383e-20)
(0.116699 1.15142 -4.25103e-20)
(0.102045 1.14196 -4.05418e-20)
(0.0873618 1.12871 -7.8879e-20)
(0.0731605 1.11251 0)
(0.059767 1.09476 0)
(0.0475282 1.07674 0)
(0.0367743 1.06049 0)
(0.0272725 1.04647 0)
(0.0185564 1.03308 -3.13945e-20)
(0.0102274 1.01857 6.16085e-20)
(0.00183791 1.0007 0)
(-0.00667851 0.978335 5.35842e-20)
(-0.0151812 0.95227 -5.25424e-20)
(-0.0236313 0.922705 0)
(-0.0317805 0.890658 -1.42115e-19)
(-0.0394053 0.857453 -1.43259e-19)
(-0.0464814 0.822724 0)
(-0.0529016 0.786301 -1.37247e-19)
(-0.0583536 0.750063 -4.04492e-20)
(0.0185581 1.00072 4.12579e-21)
(0.0575498 1.00805 -1.17384e-20)
(0.0944774 1.02313 0)
(0.125796 1.04336 -7.41415e-21)
(0.149858 1.06568 1.88078e-20)
(0.166412 1.08785 -1.86723e-20)
(0.176138 1.10848 -3.45845e-20)
(0.179996 1.12663 6.74942e-20)
(0.179018 1.14176 3.07283e-20)
(0.174275 1.15379 -3.12914e-20)
(0.166675 1.16268 -2.89471e-20)
(0.156969 1.16866 -2.74993e-20)
(0.145831 1.172 -1.29519e-20)
(0.133814 1.17299 -1.54712e-21)
(0.121146 1.1713 0)
(0.108132 1.16648 0)
(0.0948899 1.15814 0)
(0.0818237 1.14679 0)
(0.0692056 1.13345 -7.48559e-20)
(0.0573841 1.11917 0)
(0.046725 1.10568 0)
(0.0371237 1.09353 3.40884e-20)
(0.0282524 1.08154 -6.36754e-20)
(0.0198008 1.06836 -6.08407e-20)
(0.011373 1.05209 0)
(0.00290499 1.03174 -5.47082e-20)
(-0.00548776 1.00798 -5.3554e-20)
(-0.0137909 0.980968 0)
(-0.0217856 0.951638 0)
(-0.0292976 0.92115 9.57008e-20)
(-0.0363489 0.889134 0)
(-0.0428692 0.85538 1.82939e-19)
(-0.0485749 0.821634 -3.71964e-19)
(0.0156113 1.00058 -3.97177e-21)
(0.0487283 1.00659 -3.0027e-19)
(0.0807959 1.01929 0)
(0.108932 1.03688 2.41583e-21)
(0.131571 1.05707 -5.60232e-20)
(0.148207 1.07801 -5.38476e-20)
(0.15914 1.09844 3.40551e-20)
(0.164953 1.1174 -1.36407e-21)
(0.166348 1.13421 -3.25806e-20)
(0.164174 1.14865 -3.03062e-20)
(0.159134 1.16052 -2.89422e-20)
(0.151858 1.16981 5.51508e-20)
(0.142964 1.17667 0)
(0.132987 1.18128 -4.85666e-20)
(0.122252 1.18346 2.36765e-21)
(0.111051 1.18283 4.52995e-20)
(0.0994812 1.17902 -8.37381e-20)
(0.0878353 1.17226 0)
(0.0763254 1.16325 7.46531e-20)
(0.0652791 1.15281 0)
(0.0550675 1.14236 0)
(0.0456915 1.13247 -3.39208e-20)
(0.0369499 1.12233 -6.47869e-20)
(0.0286196 1.11091 1.26557e-19)
(0.020365 1.09664 5.86079e-20)
(0.0121277 1.07866 -1.71651e-19)
(0.00400133 1.05751 1.06938e-19)
(-0.0040147 1.03332 0)
(-0.0117224 1.00696 1.52385e-19)
(-0.0189839 0.979431 5.02077e-20)
(-0.0258512 0.950382 0)
(-0.0322824 0.919593 4.79878e-20)
(-0.038025 0.888674 2.3527e-19)
(0.0131704 1.00047 -3.84303e-21)
(0.0412975 1.00547 1.54506e-19)
(0.0689923 1.01622 -3.65669e-20)
(0.0939354 1.0315 -1.82656e-20)
(0.114729 1.04958 5.49659e-20)
(0.130768 1.06899 9.6129e-22)
(0.14212 1.08863 5.76551e-22)
(0.149106 1.10761 3.18565e-20)
(0.15218 1.12521 0)
(0.151998 1.14112 3.04033e-20)
(0.149085 1.15505 5.79626e-20)
(0.143944 1.16682 -5.53627e-20)
(0.137119 1.17647 -2.64564e-20)
(0.129108 1.18408 4.43549e-20)
(0.120297 1.18955 -9.28238e-22)
(0.110961 1.19259 0)
(0.101176 1.19279 4.25003e-20)
(0.0911263 1.19022 4.11583e-20)
(0.0809611 1.18529 3.75916e-20)
(0.0709679 1.1786 7.32017e-20)
(0.0614981 1.17128 -3.67464e-20)
(0.052634 1.16389 -6.84061e-20)
(0.0442861 1.15591 2.46999e-21)
(0.0363135 1.14655 6.52335e-20)
(0.0284447 1.13454 5.96189e-20)
(0.0206278 1.11917 5.53912e-20)
(0.0129351 1.10084 1.11174e-19)
(0.00535727 1.07967 -1.06643e-19)
(-0.00192489 1.05643 -1.02189e-19)
(-0.00879976 1.03202 5.19917e-20)
(-0.0153353 1.00611 -6.52473e-22)
(-0.021509 0.978482 -1.44535e-19)
(-0.0270984 0.950616 -4.74457e-20)
(0.01112 1.00039 0)
(0.034983 1.00461 8.96891e-21)
(0.0587786 1.01378 4.56335e-20)
(0.080648 1.02707 -1.80115e-20)
(0.0993854 1.04319 1.74632e-20)
(0.114377 1.06098 -1.6669e-20)
(0.125558 1.07951 1.01959e-19)
(0.133082 1.09801 -3.29434e-20)
(0.137224 1.11576 3.09729e-22)
(0.138482 1.13243 -3.07565e-20)
(0.137237 1.14766 -5.68935e-20)
(0.133877 1.16118 5.67267e-20)
(0.128865 1.17294 2.65206e-20)
(0.122651 1.18293 -3.69106e-20)
(0.115657 1.19111 -2.15482e-20)
(0.108137 1.19722 4.64691e-20)
(0.100144 1.20087 4.19403e-20)
(0.0917669 1.20198 -8.17506e-20)
(0.0830889 1.20074 -3.87535e-20)
(0.0743441 1.19758 -7.46426e-20)
(0.0658444 1.19335 0)
(0.0577305 1.18855 0)
(0.0500067 1.18287 6.68299e-20)
(0.0426059 1.17575 -6.6211e-20)
(0.035321 1.16618 0)
(0.0281053 1.15353 -5.76735e-20)
(0.0210104 1.13812 -5.42363e-20)
(0.0140205 1.12005 5.33353e-20)
(0.00730045 1.10002 1.59026e-19)
(0.000943015 1.0788 -5.11136e-20)
(-0.0051246 1.0561 -1.00592e-19)
(-0.0108916 1.03174 4.75607e-23)
(-0.016163 1.00705 9.70081e-20)
(0.00937435 1.00033 0)
(0.0295653 1.00393 -8.75176e-21)
(0.0498946 1.01182 2.60604e-20)
(0.0688725 1.02344 4.37197e-20)
(0.0854807 1.03781 -5.25031e-20)
(0.0991444 1.05402 1.01017e-19)
(0.109734 1.07133 3.22715e-20)
(0.1173 1.08905 -9.66096e-20)
(0.121998 1.10654 6.36929e-20)
(0.124203 1.12345 3.05941e-20)
(0.124185 1.1394 -2.90241e-20)
(0.122236 1.15407 8.24411e-20)
(0.118741 1.16735 -5.44875e-20)
(0.114097 1.17916 6.41931e-21)
(0.108747 1.18948 -2.41565e-20)
(0.102918 1.19807 4.49774e-20)
(0.0966463 1.20458 -8.70183e-20)
(0.0899322 1.20882 4.23847e-20)
(0.0827995 1.21083 1.17577e-19)
(0.0754198 1.21086 -7.65529e-20)
(0.068052 1.20955 3.78527e-20)
(0.0608727 1.2073 0)
(0.0539617 1.20396 6.77437e-20)
(0.047315 1.19913 -6.71145e-20)
(0.0407859 1.19203 0)
(0.0343322 1.18212 0)
(0.0279836 1.16964 0)
(0.0217194 1.15467 1.64287e-19)
(0.0156878 1.13782 -1.05529e-19)
(0.00996774 1.11978 -1.04484e-19)
(0.00449023 1.1003 5.14964e-20)
(-0.000739685 1.07922 1.00701e-19)
(-0.00555093 1.05774 5.08873e-20)
(0.0078682 1.00028 0)
(0.024868 1.0034 -5.92227e-20)
(0.0421123 1.01026 -9.34362e-21)
(0.0584039 1.02048 -8.69978e-21)
(0.0728943 1.03333 -5.06545e-20)
(0.0850702 1.0481 -5.07158e-20)
(0.0947794 1.06418 -6.60306e-20)
(0.102015 1.08099 -3.19978e-20)
(0.106857 1.09796 -2.49366e-22)
(0.10959 1.11476 3.04462e-20)
(0.110402 1.13101 5.68924e-20)
(0.109508 1.14637 -5.67967e-20)
(0.107225 1.16069 -7.94329e-20)
(0.103902 1.17383 3.95737e-20)
(0.0999824 1.18577 -7.244e-20)
(0.0956726 1.19631 9.40217e-20)
(0.0909925 1.20511 -4.31187e-20)
(0.0858682 1.21193 4.29157e-20)
(0.0802693 1.2167 -8.08464e-20)
(0.0743027 1.21954 3.80014e-20)
(0.0681654 1.22087 -3.83373e-20)
(0.0620515 1.22103 0)
(0.0560967 1.21996 0)
(0.0503486 1.21739 -6.71278e-20)
(0.0447149 1.2127 6.36358e-20)
(0.0391554 1.20545 -5.9294e-20)
(0.033678 1.1958 5.84917e-20)
(0.0282571 1.18384 -5.53373e-20)
(0.0230227 1.17008 -1.08885e-19)
(0.0180436 1.15513 -6.08974e-22)
(0.0132608 1.13879 -1.03302e-19)
(0.00867807 1.12092 1.02914e-19)
(0.00444483 1.10259 -2.01239e-19)
(0.00655097 1.00024 0)
(0.0207486 1.00298 1.34594e-19)
(0.0352349 1.00902 -6.12645e-22)
(0.0490444 1.01809 0)
(0.061476 1.02965 3.38436e-20)
(0.0720857 1.04313 0)
(0.0807241 1.05806 -6.44443e-20)
(0.0873589 1.07394 6.36784e-20)
(0.0920228 1.09028 2.98727e-20)
(0.0949401 1.10676 -5.97525e-20)
(0.0962397 1.12302 8.71436e-20)
(0.0960802 1.13874 0)
(0.0947198 1.15371 2.69072e-20)
(0.0924644 1.16778 5.07107e-20)
(0.0897518 1.18092 -9.86549e-20)
(0.0867653 1.19294 -4.48837e-20)
(0.0835128 1.20351 4.54174e-20)
(0.0798606 1.21238 4.16507e-20)
(0.0757318 1.21941 3.94092e-20)
(0.0711697 1.22464 -3.84661e-20)
(0.0663071 1.2283 7.69632e-20)
(0.0613391 1.23066 -7.20926e-20)
(0.0564396 1.2317 7.19064e-20)
(0.0516957 1.23124 6.70386e-20)
(0.0470611 1.22883 7.10976e-22)
(0.042496 1.22408 -5.99853e-20)
(0.037986 1.21711 1.76523e-19)
(0.0335004 1.20797 1.13008e-19)
(0.0291493 1.19714 0)
(0.0249943 1.18512 1.08033e-19)
(0.0209899 1.17177 1.56623e-19)
(0.0171423 1.15697 -1.02753e-19)
(0.0135823 1.14167 5.54417e-22)
(0.00538261 1.00021 -3.45014e-21)
(0.0170907 1.00265 -1.28478e-19)
(0.0290939 1.00804 -5.03475e-20)
(0.0406104 1.01618 1.67157e-20)
(0.0510645 1.02665 0)
(0.0600817 1.03904 0)
(0.0675298 1.05294 6.46244e-20)
(0.0733708 1.06794 3.10761e-20)
(0.0776143 1.08362 -1.22885e-19)
(0.0804423 1.09968 3.02068e-20)
(0.0819465 1.11579 -5.79445e-20)
(0.0822438 1.13162 0)
(0.0815461 1.14698 5.39966e-20)
(0.0801222 1.16167 0)
(0.0783974 1.17565 -7.34225e-23)
(0.0765347 1.18874 0)
(0.0745321 1.20063 4.60342e-20)
(0.0722094 1.21109 4.38116e-20)
(0.0694518 1.21992 0)
(0.0662441 1.2271 0)
(0.0626559 1.23275 -3.81935e-20)
(0.058871 1.23703 0)
(0.0550856 1.23996 6.99541e-20)
(0.0514139 1.24144 -9.7512e-22)
(0.0478472 1.24109 -6.42688e-20)
(0.0443434 1.23862 -6.2887e-20)
(0.040867 1.2341 -2.95768e-19)
(0.0373809 1.22758 -5.53584e-20)
(0.0339742 1.21944 -5.53287e-20)
(0.030703 1.21014 5.45538e-20)
(0.027538 1.19957 1.05441e-19)
(0.0244896 1.18764 -1.04197e-19)
(0.0216724 1.17518 8.04e-22)
(0.00433074 1.00018 0)
(0.0137981 1.0024 6.58971e-20)
(0.0235442 1.00727 -4.92798e-20)
(0.0329341 1.01467 1.65199e-20)
(0.0414983 1.02427 -1.6314e-20)
(0.0489273 1.03574 -4.85773e-20)
(0.0551144 1.04876 -3.20847e-20)
(0.0600286 1.06299 0)
(0.0636717 1.07805 9.09927e-20)
(0.0661995 1.09366 -9.52179e-23)
(0.0676813 1.10953 -2.84218e-20)
(0.0682054 1.12535 5.59833e-20)
(0.0679475 1.1409 -1.07427e-19)
(0.0671457 1.15598 7.82029e-20)
(0.0662092 1.17053 2.31413e-20)
(0.0652819 1.18435 -4.84877e-20)
(0.0643536 1.1972 -1.36727e-19)
(0.0632094 1.20881 4.26697e-20)
(0.0617055 1.21902 -4.07039e-20)
(0.0597746 1.22775 4.07953e-20)
(0.0574276 1.23502 3.79807e-20)
(0.0548281 1.24093 -3.80932e-20)
(0.0521809 1.24551 -7.0489e-20)
(0.0496166 1.24867 -6.58425e-20)
(0.0471542 1.25014 6.62878e-20)
(0.044748 1.2497 1.23595e-19)
(0.0423419 1.24736 1.18655e-19)
(0.0398917 1.24317 -1.71331e-19)
(0.0374652 1.23747 5.63021e-20)
(0.0351142 1.23062 -1.09603e-19)
(0.0328267 1.22257 -2.14017e-19)
(0.0306183 1.21327 0)
(0.0285902 1.20341 0)
(0.00336858 1.00016 0)
(0.0107895 1.0022 -6.45492e-20)
(0.0184602 1.00668 3.28576e-20)
(0.0258638 1.0135 -1.62737e-20)
(0.0326205 1.02242 3.26329e-20)
(0.0384811 1.03316 3.25672e-20)
(0.0433682 1.04547 3.17918e-20)
(0.0472659 1.05904 6.18131e-20)
(0.0501789 1.07357 -1.21351e-19)
(0.0522484 1.08878 -5.94159e-20)
(0.053532 1.10439 5.77825e-20)
(0.0540996 1.12012 -8.34657e-23)
(0.0540993 1.13575 -5.42398e-20)
(0.0537442 1.15106 -2.53119e-20)
(0.0534244 1.16597 5.09967e-20)
(0.0532656 1.18027 -4.79423e-20)
(0.0532504 1.19374 2.27248e-19)
(0.0531386 1.20617 -8.87646e-20)
(0.0527652 1.21738 -4.26334e-20)
(0.0520189 1.22728 0)
(0.0508582 1.23582 -7.64833e-20)
(0.0494209 1.24305 7.66698e-20)
(0.0479089 1.24899 0)
(0.0464593 1.25357 -1.35026e-21)
(0.0451104 1.2566 -1.96833e-19)
(0.0438106 1.25788 6.35323e-20)
(0.0424852 1.25743 0)
(0.0410823 1.25528 0)
(0.0396482 1.25171 1.13054e-19)
(0.0382317 1.24704 5.4782e-20)
(0.0368375 1.24123 -5.45393e-20)
(0.0354878 1.23427 0)
(0.0342724 1.22674 -1.52659e-19)
(0.00247343 1.00015 0)
(0.00799559 1.00206 8.52542e-21)
(0.0137315 1.00625 8.09558e-21)
(0.0192612 1.01264 -1.61322e-20)
(0.0242816 1.02104 3.21003e-20)
(0.0285982 1.03123 -6.34207e-20)
(0.0321656 1.04299 6.25439e-20)
(0.0349879 1.05607 -6.17598e-20)
(0.0370799 1.07017 2.27016e-22)
(0.0385766 1.08505 0)
(0.0395317 1.10044 -7.23614e-22)
(0.0400042 1.11607 -2.23541e-19)
(0.0401208 1.13171 5.58975e-20)
(0.0400736 1.14715 1.04939e-19)
(0.0402322 1.16225 -5.11981e-20)
(0.0407036 1.17683 4.81009e-20)
(0.0414627 1.19068 -9.16807e-20)
(0.0422517 1.20362 -4.31168e-20)
(0.042891 1.21551 1.27137e-19)
(0.0432334 1.22623 8.11562e-20)
(0.0431924 1.23572 0)
(0.0428767 1.24397 -3.78337e-20)
(0.0424767 1.25098 1.07527e-19)
(0.042128 1.2567 6.79298e-20)
(0.0418795 1.261 1.31637e-19)
(0.0416728 1.26372 1.87519e-19)
(0.0414164 1.26485 -6.12825e-20)
(0.0410503 1.26443 0)
(0.0406006 1.26268 -1.13926e-19)
(0.0401135 1.25987 0)
(0.0396097 1.256 5.47105e-20)
(0.0391176 1.25107 1.06198e-19)
(0.0387181 1.24557 1.02617e-19)
(0.00162544 1.00013 -3.32721e-21)
(0.00535493 1.00197 1.2413e-19)
(0.00925925 1.00595 4.02827e-20)
(0.0129994 1.01205 3.02544e-23)
(0.0163387 1.02009 -3.2087e-20)
(0.0191337 1.0299 3.19705e-20)
(0.021372 1.04129 -3.11233e-20)
(0.0230816 1.05403 0)
(0.0242916 1.06785 3.04521e-20)
(0.0251377 1.0825 -2.9052e-20)
(0.0256743 1.09772 7.40142e-23)
(0.0259543 1.11326 5.58029e-20)
(0.0260877 1.12889 -5.41514e-20)
(0.0262482 1.14438 5.16523e-20)
(0.0267824 1.15957 -1.01069e-19)
(0.0277779 1.17427 9.67192e-20)
(0.0292 1.18829 -9.30906e-20)
(0.0307791 1.2015 8.83405e-20)
(0.0323262 1.21378 -1.69059e-19)
(0.0336657 1.22503 -4.13601e-20)
(0.0346743 1.23515 -1.18772e-19)
(0.0354301 1.24413 1.50174e-19)
(0.0361058 1.25192 -3.90433e-20)
(0.0368286 1.25851 -1.40176e-19)
(0.0376507 1.26379 -6.5989e-20)
(0.0385066 1.26764 -1.25954e-19)
(0.03929 1.27006 6.1387e-20)
(0.0399332 1.27105 2.18066e-22)
(0.0404437 1.27081 5.65074e-20)
(0.0408653 1.26956 0)
(0.041233 1.26732 -5.4234e-20)
(0.0415818 1.26411 -2.79279e-22)
(0.0419855 1.26032 0)
(0.000806666 1.00012 -1.05792e-19)
(0.00281193 1.00192 -1.27803e-19)
(0.00495265 1.00578 -1.61253e-20)
(0.00695934 1.0117 0)
(0.00865488 1.01954 0)
(0.00994389 1.02914 0)
(0.0108484 1.04033 0)
(0.0114226 1.05289 0)
(0.011714 1.06656 5.98928e-20)
(0.0118627 1.0811 5.87051e-20)
(0.0119268 1.09624 5.79771e-20)
(0.011956 1.11174 1.12094e-19)
(0.0120458 1.12735 5.40845e-20)
(0.0123523 1.14285 0)
(0.0131963 1.15803 0)
(0.0146435 1.17271 0)
(0.0166473 1.18674 4.62885e-20)
(0.0189302 1.2 -1.32119e-19)
(0.0212976 1.21243 1.28037e-19)
(0.0235528 1.22394 0)
(0.025543 1.23443 8.02301e-20)
(0.0273167 1.24384 3.94619e-20)
(0.0290237 1.25216 3.63819e-20)
(0.0307783 1.25934 1.18754e-21)
(0.0326299 1.26533 1.28857e-21)
(0.0345055 1.27003 6.21062e-20)
(0.0362869 1.27342 -3.04308e-19)
(0.0378993 1.27553 5.89383e-20)
(0.0393335 1.2765 0)
(0.0406317 1.27649 5.53038e-20)
(0.0418408 1.27557 -4.95657e-22)
(0.0430013 1.27376 -1.0582e-19)
(0.044182 1.27138 5.12796e-20)
(2.24462e-07 1.00011 1.02509e-19)
(0.000314303 1.0019 4.01304e-21)
(0.000725765 1.00573 0)
(0.00102724 1.0116 -1.60013e-20)
(0.00109685 1.01938 1.59445e-20)
(0.000885992 1.02893 0)
(0.000453036 1.04009 -6.20323e-20)
(-0.00011901 1.05263 0)
(-0.000762443 1.06631 -5.98189e-20)
(-0.00132977 1.08086 0)
(-0.00175808 1.09601 -7.3523e-22)
(-0.00200044 1.11151 -1.67553e-19)
(-0.00197578 1.1271 0)
(-0.00154659 1.14256 0)
(-0.000421967 1.15766 0)
(0.00143859 1.17221 -2.43363e-20)
(0.00397325 1.18608 -8.12842e-22)
(0.0068993 1.19922 -4.52732e-20)
(0.0100191 1.21158 0)
(0.0131213 1.22311 -4.01078e-20)
(0.0160313 1.23371 -3.86684e-20)
(0.0187691 1.24331 -3.79085e-20)
(0.0214594 1.25188 -1.09057e-19)
(0.0241997 1.25941 -1.31928e-21)
(0.027032 1.26583 -1.16151e-21)
(0.0298763 1.27111 -6.29638e-20)
(0.0326056 1.27522 6.18403e-20)
(0.0351387 1.27816 1.76413e-19)
(0.0374528 1.28003 -1.7196e-19)
(0.0395879 1.28098 1.67585e-19)
(0.0416006 1.28107 -1.08791e-19)
(0.0435363 1.28035 1.0591e-19)
(0.0454597 1.27906 -5.10164e-20)
(-0.000810468 1.00011 0)
(-0.00218913 1.00193 6.39288e-20)
(-0.00350557 1.0058 0)
(-0.00490899 1.01173 0)
(-0.00646756 1.01959 4.78695e-20)
(-0.00818253 1.02927 4.7478e-20)
(-0.00995655 1.04056 6.18398e-20)
(-0.0116756 1.05325 -3.07096e-20)
(-0.0132503 1.06708 0)
(-0.0145244 1.08176 -2.89249e-20)
(-0.0154314 1.097 2.88825e-20)
(-0.0159286 1.11253 5.55328e-20)
(-0.0159515 1.12811 0)
(-0.0153845 1.14349 -5.23235e-20)
(-0.013972 1.15841 -4.98799e-20)
(-0.0117034 1.1727 9.84467e-20)
(-0.00865967 1.18628 4.65662e-20)
(-0.00512671 1.19912 -4.44858e-20)
(-0.00130338 1.21123 0)
(0.00259073 1.22255 0)
(0.00636591 1.23303 0)
(0.0100162 1.24258 1.50071e-19)
(0.01364 1.25117 -7.37564e-20)
(0.0173163 1.25879 6.80146e-20)
(0.0210758 1.26542 -6.71749e-20)
(0.0248329 1.27103 3.63779e-22)
(0.0284549 1.27559 0)
(0.0318557 1.2791 0)
(0.0350017 1.28161 5.74646e-20)
(0.0379304 1.28323 -5.60084e-20)
(0.0407051 1.28404 0)
(0.0433755 1.28411 -2.61363e-20)
(0.0460019 1.28361 0)
(-0.00164247 1.0001 -3.32605e-21)
(-0.0047506 1.002 6.83854e-20)
(-0.00782699 1.006 1.61623e-20)
(-0.0109631 1.0121 -4.83791e-20)
(-0.0141721 1.0202 -7.95396e-20)
(-0.0174055 1.03015 -4.70746e-20)
(-0.0205233 1.04176 6.20138e-20)
(-0.0233783 1.05476 0)
(-0.0258588 1.06888 -1.19883e-19)
(-0.0278007 1.08379 2.89296e-20)
(-0.0291368 1.09918 -2.88858e-20)
(-0.029833 1.11478 -5.55709e-20)
(-0.029846 1.13032 5.39305e-20)
(-0.0290874 1.14553 1.03634e-19)
(-0.0273447 1.16016 -3.88497e-20)
(-0.0246426 1.17407 -2.44424e-20)
(-0.021085 1.18719 -4.6569e-20)
(-0.0169597 1.19957 4.46059e-20)
(-0.0124649 1.21123 -8.49675e-20)
(-0.00782256 1.22215 4.14601e-20)
(-0.00323058 1.23229 4.00903e-20)
(0.00128249 1.24157 -3.7837e-20)
(0.00578895 1.24996 7.24685e-20)
(0.0103485 1.25746 6.87369e-20)
(0.0149789 1.26408 -9.26116e-22)
(0.0195902 1.2698 6.14926e-20)
(0.0240474 1.27458 -6.00455e-20)
(0.0282611 1.27842 0)
(0.0321899 1.28131 -1.12836e-19)
(0.035868 1.28333 2.87316e-20)
(0.0393627 1.28459 -5.3164e-20)
(0.0427263 1.28516 7.92107e-20)
(0.0460147 1.28514 -2.4537e-20)
(-0.00251417 1.0001 -1.07226e-19)
(-0.00742578 1.00211 -6.44526e-20)
(-0.0123289 1.00632 0)
(-0.0172541 1.01274 8.08509e-20)
(-0.0221552 1.02122 -1.60565e-20)
(-0.0269293 1.03163 -3.20348e-20)
(-0.0313895 1.04371 -6.22655e-20)
(-0.0353533 1.05718 3.08437e-20)
(-0.0386877 1.07172 1.19688e-19)
(-0.0412238 1.08695 -1.4647e-19)
(-0.0428997 1.10254 2.89147e-20)
(-0.0436966 1.11818 1.10179e-19)
(-0.0436002 1.13359 -1.61531e-19)
(-0.0425577 1.14852 8.42064e-22)
(-0.0404091 1.16272 -1.26405e-20)
(-0.0372203 1.17607 4.7925e-20)
(-0.0331221 1.18857 -8.27682e-22)
(-0.0284018 1.2003 -4.4482e-20)