/*--------------------------------*- C++ -*----------------------------------*\
  =========                 |
  \\      /  F ield         | OpenFOAM: The Open Source CFD Toolbox
   \\    /   O peration     | Website:  https://openfoam.org
    \\  /    A nd           | Version:  6
     \\/     M anipulation  |
\*---------------------------------------------------------------------------*/
FoamFile
{
    version     2.0;
    format      ascii;
    class       volScalarField;
    location    "3200";
    object      Cx;
}
// * * * * * * * * * * * * * * * * * * * * * * * * * * * * * * * * * * * * * //

dimensions      [0 1 0 0 0 0 0];

internalField   nonuniform List<scalar> 
2500
(
-0.489236
-0.469267
-0.449298
-0.429329
-0.409361
-0.389392
-0.369423
-0.349454
-0.329485
-0.309517
-0.289548
-0.269579
-0.24961
-0.229641
-0.209673
-0.189704
-0.169735
-0.149766
-0.129797
-0.109828
-0.0898596
-0.0698908
-0.049922
-0.0299532
-0.00998441
0.00998441
0.0299532
0.049922
0.0698908
0.0898596
0.109828
0.129797
0.149766
0.169735
0.189704
0.209673
0.229641
0.24961
0.269579
0.289548
0.309517
0.329485
0.349454
0.369423
0.389392
0.409361
0.429329
0.449298
0.469267
0.489236
-0.48771
-0.467803
-0.447897
-0.42799
-0.408084
-0.388177
-0.368271
-0.348364
-0.328458
-0.308551
-0.288645
-0.268738
-0.248831
-0.228925
-0.209018
-0.189112
-0.169205
-0.149299
-0.129392
-0.109486
-0.0895793
-0.0696728
-0.0497663
-0.0298598
-0.00995326
0.00995326
0.0298598
0.0497663
0.0696728
0.0895793
0.109486
0.129392
0.149299
0.169205
0.189112
0.209018
0.228925
0.248831
0.268738
0.288645
0.308551
0.328458
0.348364
0.368271
0.388177
0.408084
0.42799
0.447897
0.467803
0.48771
-0.486192
-0.466348
-0.446503
-0.426658
-0.406814
-0.386969
-0.367125
-0.34728
-0.327436
-0.307591
-0.287746
-0.267902
-0.248057
-0.228213
-0.208368
-0.188524
-0.168679
-0.148834
-0.12899
-0.109145
-0.0893006
-0.069456
-0.0496115
-0.0297669
-0.00992229
0.00992229
0.0297669
0.0496115
0.069456
0.0893006
0.109145
0.12899
0.148834
0.168679
0.188524
0.208368
0.228213
0.248057
0.267902
0.287746
0.307591
0.327436
0.34728
0.367125
0.386969
0.406814
0.426658
0.446503
0.466348
0.486192
-0.484689
-0.464906
-0.445123
-0.42534
-0.405556
-0.385773
-0.36599
-0.346207
-0.326423
-0.30664
-0.286857
-0.267074
-0.24729
-0.227507
-0.207724
-0.187941
-0.168157
-0.148374
-0.128591
-0.108808
-0.0890246
-0.0692413
-0.0494581
-0.0296749
-0.00989162
0.00989162
0.0296749
0.0494581
0.0692413
0.0890246
0.108808
0.128591
0.148374
0.168157
0.187941
0.207724
0.227507
0.24729
0.267074
0.286857
0.30664
0.326423
0.346207
0.36599
0.385773
0.405556
0.42534
0.445123
0.464906
0.484689
-0.483207
-0.463484
-0.443761
-0.424038
-0.404316
-0.384593
-0.36487
-0.345148
-0.325425
-0.305702
-0.285979
-0.266257
-0.246534
-0.226811
-0.207089
-0.187366
-0.167643
-0.14792
-0.128198
-0.108475
-0.0887522
-0.0690295
-0.0493068
-0.0295841
-0.00986136
0.00986136
0.0295841
0.0493068
0.0690295
0.0887522
0.108475
0.128198
0.14792
0.167643
0.187366
0.207089
0.226811
0.246534
0.266257
0.285979
0.305702
0.325425
0.345148
0.36487
0.384593
0.404316
0.424038
0.443761
0.463484
0.483207
-0.48175
-0.462087
-0.442423
-0.42276
-0.403097
-0.383434
-0.36377
-0.344107
-0.324444
-0.30478
-0.285117
-0.265454
-0.245791
-0.226127
-0.206464
-0.186801
-0.167138
-0.147474
-0.127811
-0.108148
-0.0884847
-0.0688214
-0.0491581
-0.0294949
-0.00983163
0.00983163
0.0294949
0.0491581
0.0688214
0.0884847
0.108148
0.127811
0.147474
0.167138
0.186801
0.206464
0.226127
0.245791
0.265454
0.285117
0.30478
0.324444
0.344107
0.36377
0.383434
0.403097
0.42276
0.442423
0.462087
0.48175
-0.480325
-0.46072
-0.441114
-0.421509
-0.401904
-0.382299
-0.362694
-0.343089
-0.323484
-0.303879
-0.284274
-0.264669
-0.245064
-0.225458
-0.205853
-0.186248
-0.166643
-0.147038
-0.127433
-0.107828
-0.0882229
-0.0686178
-0.0490127
-0.0294076
-0.00980254
0.00980254
0.0294076
0.0490127
0.0686178
0.0882229
0.107828
0.127433
0.147038
0.166643
0.186248
0.205853
0.225458
0.245064
0.264669
0.284274
0.303879
0.323484
0.343089
0.362694
0.382299
0.401904
0.421509
0.441114
0.46072
0.480325
-0.478937
-0.459388
-0.43984
-0.420291
-0.400743
-0.381194
-0.361646
-0.342098
-0.322549
-0.303001
-0.283452
-0.263904
-0.244355
-0.224807
-0.205259
-0.18571
-0.166162
-0.146613
-0.127065
-0.107516
-0.0879679
-0.0684195
-0.0488711
-0.0293226
-0.00977421
0.00977421
0.0293226
0.0488711
0.0684195
0.0879679
0.107516
0.127065
0.146613
0.166162
0.18571
0.205259
0.224807
0.244355
0.263904
0.283452
0.303001
0.322549
0.342098
0.361646
0.381194
0.400743
0.420291
0.43984
0.459388
0.478937
-0.477591
-0.458097
-0.438604
-0.41911
-0.399617
-0.380123
-0.36063
-0.341136
-0.321643
-0.302149
-0.282656
-0.263162
-0.243669
-0.224175
-0.204682
-0.185188
-0.165695
-0.146201
-0.126708
-0.107214
-0.0877208
-0.0682273
-0.0487338
-0.0292403
-0.00974675
0.00974675
0.0292403
0.0487338
0.0682273
0.0877208
0.107214
0.126708
0.146201
0.165695
0.185188
0.204682
0.224175
0.243669
0.263162
0.282656
0.302149
0.321643
0.341136
0.36063
0.380123
0.399617
0.41911
0.438604
0.458097
0.477591
-0.476293
-0.456853
-0.437412
-0.417972
-0.398531
-0.379091
-0.35965
-0.340209
-0.320769
-0.301328
-0.281888
-0.262447
-0.243007
-0.223566
-0.204126
-0.184685
-0.165245
-0.145804
-0.126364
-0.106923
-0.0874824
-0.0680419
-0.0486013
-0.0291608
-0.00972027
0.00972027
0.0291608
0.0486013
0.0680419
0.0874824
0.106923
0.126364
0.145804
0.165245
0.184685
0.204126
0.223566
0.243007
0.262447
0.281888
0.301328
0.320769
0.340209
0.35965
0.379091
0.398531
0.417972
0.437412
0.456853
0.476293
-0.475048
-0.455659
-0.436269
-0.416879
-0.397489
-0.3781
-0.35871
-0.33932
-0.319931
-0.300541
-0.281151
-0.261761
-0.242372
-0.222982
-0.203592
-0.184202
-0.164813
-0.145423
-0.126033
-0.106644
-0.0872538
-0.0678641
-0.0484743
-0.0290846
-0.00969487
0.00969487
0.0290846
0.0484743
0.0678641
0.0872538
0.106644
0.126033
0.145423
0.164813
0.184202
0.203592
0.222982
0.242372
0.261761
0.281151
0.300541
0.319931
0.33932
0.35871
0.3781
0.397489
0.416879
0.436269
0.455659
0.475048
-0.473862
-0.45452
-0.435179
-0.415838
-0.396496
-0.377155
-0.357814
-0.338473
-0.319131
-0.29979
-0.280449
-0.261107
-0.241766
-0.222425
-0.203084
-0.183742
-0.164401
-0.14506
-0.125718
-0.106377
-0.0870358
-0.0676945
-0.0483532
-0.0290119
-0.00967064
0.00967064
0.0290119
0.0483532
0.0676945
0.0870358
0.106377
0.125718
0.14506
0.164401
0.183742
0.203084
0.222425
0.241766
0.261107
0.280449
0.29979
0.319131
0.338473
0.357814
0.377155
0.396496
0.415838
0.435179
0.45452
0.473862
-0.472737
-0.453442
-0.434147
-0.414851
-0.395556
-0.37626
-0.356965
-0.33767
-0.318374
-0.299079
-0.279783
-0.260488
-0.241193
-0.221897
-0.202602
-0.183306
-0.164011
-0.144716
-0.12542
-0.106125
-0.0868293
-0.0675339
-0.0482385
-0.0289431
-0.0096477
0.0096477
0.0289431
0.0482385
0.0675339
0.0868293
0.106125
0.12542
0.144716
0.164011
0.183306
0.202602
0.221897
0.241193
0.260488
0.279783
0.299079
0.318374
0.33767
0.356965
0.37626
0.395556
0.414851
0.434147
0.453442
0.472737
-0.471681
-0.452428
-0.433176
-0.413924
-0.394671
-0.375419
-0.356167
-0.336915
-0.317662
-0.29841
-0.279158
-0.259906
-0.240653
-0.221401
-0.202149
-0.182897
-0.163644
-0.144392
-0.12514
-0.105887
-0.0866352
-0.0673829
-0.0481307
-0.0288784
-0.00962613
0.00962613
0.0288784
0.0481307
0.0673829
0.0866352
0.105887
0.12514
0.144392
0.163644
0.182897
0.202149
0.221401
0.240653
0.259906
0.279158
0.29841
0.317662
0.336915
0.356167
0.375419
0.394671
0.413924
0.433176
0.452428
0.471681
-0.470695
-0.451483
-0.432271
-0.413059
-0.393847
-0.374635
-0.355423
-0.336211
-0.316999
-0.297787
-0.278575
-0.259363
-0.240151
-0.220939
-0.201727
-0.182515
-0.163302
-0.14409
-0.124878
-0.105666
-0.0864542
-0.0672422
-0.0480301
-0.0288181
-0.00960603
0.00960603
0.0288181
0.0480301
0.0672422
0.0864542
0.105666
0.124878
0.14409
0.163302
0.182515
0.201727
0.220939
0.240151
0.259363
0.278575
0.297787
0.316999
0.336211
0.355423
0.374635
0.393847
0.413059
0.432271
0.451483
0.470695
-0.469786
-0.450611
-0.431436
-0.412261
-0.393086
-0.373911
-0.354736
-0.335561
-0.316386
-0.297211
-0.278037
-0.258862
-0.239687
-0.220512
-0.201337
-0.182162
-0.162987
-0.143812
-0.124637
-0.105462
-0.0862872
-0.0671123
-0.0479373
-0.0287624
-0.00958747
0.00958747
0.0287624
0.0479373
0.0671123
0.0862872
0.105462
0.124637
0.143812
0.162987
0.182162
0.201337
0.220512
0.239687
0.258862
0.278037
0.297211
0.316386
0.335561
0.354736
0.373911
0.393086
0.412261
0.431436
0.450611
0.469786
-0.468956
-0.449815
-0.430674
-0.411533
-0.392392
-0.373251
-0.354109
-0.334968
-0.315827
-0.296686
-0.277545
-0.258404
-0.239263
-0.220122
-0.200981
-0.18184
-0.162699
-0.143558
-0.124417
-0.105276
-0.0861347
-0.0669937
-0.0478526
-0.0287116
-0.00957053
0.00957053
0.0287116
0.0478526
0.0669937
0.0861347
0.105276
0.124417
0.143558
0.162699
0.18184
0.200981
0.220122
0.239263
0.258404
0.277545
0.296686
0.315827
0.334968
0.354109
0.373251
0.392392
0.411533
0.430674
0.449815
0.468956
-0.468209
-0.449098
-0.429988
-0.410877
-0.391767
-0.372656
-0.353545
-0.334435
-0.315324
-0.296214
-0.277103
-0.257993
-0.238882
-0.219771
-0.200661
-0.18155
-0.16244
-0.143329
-0.124219
-0.105108
-0.0859975
-0.066887
-0.0477764
-0.0286658
-0.00955528
0.00955528
0.0286658
0.0477764
0.066887
0.0859975
0.105108
0.124219
0.143329
0.16244
0.18155
0.200661
0.219771
0.238882
0.257993
0.277103
0.296214
0.315324
0.334435
0.353545
0.372656
0.391767
0.410877
0.429988
0.449098
0.468209
-0.467548
-0.448464
-0.429381
-0.410297
-0.391214
-0.37213
-0.353046
-0.333963
-0.314879
-0.295796
-0.276712
-0.257628
-0.238545
-0.219461
-0.200378
-0.181294
-0.162211
-0.143127
-0.124043
-0.10496
-0.0858762
-0.0667926
-0.047709
-0.0286254
-0.0095418
0.0095418
0.0286254
0.047709
0.0667926
0.0858762
0.10496
0.124043
0.143127
0.162211
0.181294
0.200378
0.219461
0.238545
0.257628
0.276712
0.295796
0.314879
0.333963
0.353046
0.37213
0.391214
0.410297
0.429381
0.448464
0.467548
-0.466976
-0.447916
-0.428856
-0.409795
-0.390735
-0.371675
-0.352615
-0.333554
-0.314494
-0.295434
-0.276374
-0.257313
-0.238253
-0.219193
-0.200133
-0.181072
-0.162012
-0.142952
-0.123892
-0.104831
-0.0857711
-0.0667109
-0.0476506
-0.0285904
-0.00953013
0.00953013
0.0285904
0.0476506
0.0667109
0.0857711
0.104831
0.123892
0.142952
0.162012
0.181072
0.200133
0.219193
0.238253
0.257313
0.276374
0.295434
0.314494
0.333554
0.352615
0.371675
0.390735
0.409795
0.428856
0.447916
0.466976
-0.466496
-0.447455
-0.428415
-0.409374
-0.390333
-0.371293
-0.352252
-0.333211
-0.314171
-0.29513
-0.276089
-0.257049
-0.238008
-0.218967
-0.199927
-0.180886
-0.161845
-0.142805
-0.123764
-0.104724
-0.0856829
-0.0666423
-0.0476016
-0.028561
-0.00952032
0.00952032
0.028561
0.0476016
0.0666423
0.0856829
0.104724
0.123764
0.142805
0.161845
0.180886
0.199927
0.218967
0.238008
0.257049
0.276089
0.29513
0.314171
0.333211
0.352252
0.371293
0.390333
0.409374
0.428415
0.447455
0.466496
-0.466109
-0.447084
-0.428059
-0.409034
-0.39001
-0.370985
-0.35196
-0.332935
-0.31391
-0.294885
-0.27586
-0.256836
-0.237811
-0.218786
-0.199761
-0.180736
-0.161711
-0.142686
-0.123662
-0.104637
-0.0856119
-0.066587
-0.0475621
-0.0285373
-0.00951243
0.00951243
0.0285373
0.0475621
0.066587
0.0856119
0.104637
0.123662
0.142686
0.161711
0.180736
0.199761
0.218786
0.237811
0.256836
0.27586
0.294885
0.31391
0.332935
0.35196
0.370985
0.39001
0.409034
0.428059
0.447084
0.466109
-0.465817
-0.446804
-0.427791
-0.408779
-0.389766
-0.370753
-0.35174
-0.332727
-0.313714
-0.294701
-0.275688
-0.256675
-0.237662
-0.218649
-0.199636
-0.180623
-0.16161
-0.142597
-0.123584
-0.104571
-0.0855583
-0.0665453
-0.0475324
-0.0285194
-0.00950648
0.00950648
0.0285194
0.0475324
0.0665453
0.0855583
0.104571
0.123584
0.142597
0.16161
0.180623
0.199636
0.218649
0.237662
0.256675
0.275688
0.294701
0.313714
0.332727
0.35174
0.370753
0.389766
0.408779
0.427791
0.446804
0.465817
-0.465622
-0.446617
-0.427612
-0.408607
-0.389602
-0.370597
-0.351592
-0.332587
-0.313582
-0.294577
-0.275572
-0.256567
-0.237562
-0.218557
-0.199552
-0.180547
-0.161542
-0.142537
-0.123532
-0.104527
-0.0855225
-0.0665175
-0.0475125
-0.0285075
-0.00950249
0.00950249
0.0285075
0.0475125
0.0665175
0.0855225
0.104527
0.123532
0.142537
0.161542
0.180547
0.199552
0.218557
0.237562
0.256567
0.275572
0.294577
0.313582
0.332587
0.351592
0.370597
0.389602
0.408607
0.427612
0.446617
0.465622
-0.465524
-0.446523
-0.427522
-0.408521
-0.38952
-0.370519
-0.351518
-0.332517
-0.313516
-0.294515
-0.275514
-0.256513
-0.237512
-0.218511
-0.19951
-0.180509
-0.161508
-0.142507
-0.123506
-0.104505
-0.0855045
-0.0665035
-0.0475025
-0.0285015
-0.0095005
0.0095005
0.0285015
0.0475025
0.0665035
0.0855045
0.104505
0.123506
0.142507
0.161508
0.180509
0.19951
0.218511
0.237512
0.256513
0.275514
0.294515
0.313516
0.332517
0.351518
0.370519
0.38952
0.408521
0.427522
0.446523
0.465524
-0.465524
-0.446523
-0.427522
-0.408521
-0.38952
-0.370519
-0.351518
-0.332517
-0.313516
-0.294515
-0.275514
-0.256513
-0.237512
-0.218511
-0.19951
-0.180509
-0.161508
-0.142507
-0.123506
-0.104505
-0.0855045
-0.0665035
-0.0475025
-0.0285015
-0.0095005
0.0095005
0.0285015
0.0475025
0.0665035
0.0855045
0.104505
0.123506
0.142507
0.161508
0.180509
0.19951
0.218511
0.237512
0.256513
0.275514
0.294515
0.313516
0.332517
0.351518
0.370519
0.38952
0.408521
0.427522
0.446523
0.465524
-0.465622
-0.446617
-0.427612
-0.408607
-0.389602
-0.370597
-0.351592
-0.332587
-0.313582
-0.294577
-0.275572
-0.256567
-0.237562
-0.218557
-0.199552
-0.180547
-0.161542
-0.142537
-0.123532
-0.104527
-0.0855225
-0.0665175
-0.0475125
-0.0285075
-0.00950249
0.00950249
0.0285075
0.0475125
0.0665175
0.0855225
0.104527
0.123532
0.142537
0.161542
0.180547
0.199552
0.218557
0.237562
0.256567
0.275572
0.294577
0.313582
0.332587
0.351592
0.370597
0.389602
0.408607
0.427612
0.446617
0.465622
-0.465817
-0.446804
-0.427791
-0.408779
-0.389766
-0.370753
-0.35174
-0.332727
-0.313714
-0.294701
-0.275688
-0.256675
-0.237662
-0.218649
-0.199636
-0.180623
-0.16161
-0.142597
-0.123584
-0.104571
-0.0855583
-0.0665453
-0.0475324
-0.0285194
-0.00950648
0.00950648
0.0285194
0.0475324
0.0665453
0.0855583
0.104571
0.123584
0.142597
0.16161
0.180623
0.199636
0.218649
0.237662
0.256675
0.275688
0.294701
0.313714
0.332727
0.35174
0.370753
0.389766
0.408779
0.427791
0.446804
0.465817
-0.466109
-0.447084
-0.428059
-0.409034
-0.39001
-0.370985
-0.35196
-0.332935
-0.31391
-0.294885
-0.27586
-0.256836
-0.237811
-0.218786
-0.199761
-0.180736
-0.161711
-0.142686
-0.123662
-0.104637
-0.0856119
-0.066587
-0.0475621
-0.0285373
-0.00951243
0.00951243
0.0285373
0.0475621
0.066587
0.0856119
0.104637
0.123662
0.142686
0.161711
0.180736
0.199761
0.218786
0.237811
0.256836
0.27586
0.294885
0.31391
0.332935
0.35196
0.370985
0.39001
0.409034
0.428059
0.447084
0.466109
-0.466496
-0.447455
-0.428415
-0.409374
-0.390333
-0.371293
-0.352252
-0.333211
-0.314171
-0.29513
-0.276089
-0.257049
-0.238008
-0.218967
-0.199927
-0.180886
-0.161845
-0.142805
-0.123764
-0.104724
-0.0856829
-0.0666423
-0.0476016
-0.028561
-0.00952032
0.00952032
0.028561
0.0476016
0.0666423
0.0856829
0.104724
0.123764
0.142805
0.161845
0.180886
0.199927
0.218967
0.238008
0.257049
0.276089
0.29513
0.314171
0.333211
0.352252
0.371293
0.390333
0.409374
0.428415
0.447455
0.466496
-0.466976
-0.447916
-0.428856
-0.409795
-0.390735
-0.371675
-0.352615
-0.333554
-0.314494
-0.295434
-0.276374
-0.257313
-0.238253
-0.219193
-0.200133
-0.181072
-0.162012
-0.142952
-0.123892
-0.104831
-0.0857711
-0.0667109
-0.0476506
-0.0285904
-0.00953013
0.00953013
0.0285904
0.0476506
0.0667109
0.0857711
0.104831
0.123892
0.142952
0.162012
0.181072
0.200133
0.219193
0.238253
0.257313
0.276374
0.295434
0.314494
0.333554
0.352615
0.371675
0.390735
0.409795
0.428856
0.447916
0.466976
-0.467548
-0.448464
-0.429381
-0.410297
-0.391214
-0.37213
-0.353046
-0.333963
-0.314879
-0.295796
-0.276712
-0.257628
-0.238545
-0.219461
-0.200378
-0.181294
-0.162211
-0.143127
-0.124043
-0.10496
-0.0858762
-0.0667926
-0.047709
-0.0286254
-0.0095418
0.0095418
0.0286254
0.047709
0.0667926
0.0858762
0.10496
0.124043
0.143127
0.162211
0.181294
0.200378
0.219461
0.238545
0.257628
0.276712
0.295796
0.314879
0.333963
0.353046
0.37213
0.391214
0.410297
0.429381
0.448464
0.467548
-0.468209
-0.449098
-0.429988
-0.410877
-0.391767
-0.372656
-0.353545
-0.334435
-0.315324
-0.296214
-0.277103
-0.257993
-0.238882
-0.219771
-0.200661
-0.18155
-0.16244
-0.143329
-0.124219
-0.105108
-0.0859975
-0.066887
-0.0477764
-0.0286658
-0.00955528
0.00955528
0.0286658
0.0477764
0.066887
0.0859975
0.105108
0.124219
0.143329
0.16244
0.18155
0.200661
0.219771
0.238882
0.257993
0.277103
0.296214
0.315324
0.334435
0.353545
0.372656
0.391767
0.410877
0.429988
0.449098
0.468209
-0.468956
-0.449815
-0.430674
-0.411533
-0.392392
-0.373251
-0.354109
-0.334968
-0.315827
-0.296686
-0.277545
-0.258404
-0.239263
-0.220122
-0.200981
-0.18184
-0.162699
-0.143558
-0.124417
-0.105276
-0.0861347
-0.0669937
-0.0478526
-0.0287116
-0.00957053
0.00957053
0.0287116
0.0478526
0.0669937
0.0861347
0.105276
0.124417
0.143558
0.162699
0.18184
0.200981
0.220122
0.239263
0.258404
0.277545
0.296686
0.315827
0.334968
0.354109
0.373251
0.392392
0.411533
0.430674
0.449815
0.468956
-0.469786
-0.450611
-0.431436
-0.412261
-0.393086
-0.373911
-0.354736
-0.335561
-0.316386
-0.297211
-0.278037
-0.258862
-0.239687
-0.220512
-0.201337
-0.182162
-0.162987
-0.143812
-0.124637
-0.105462
-0.0862872
-0.0671123
-0.0479373
-0.0287624
-0.00958747
0.00958747
0.0287624
0.0479373
0.0671123
0.0862872
0.105462
0.124637
0.143812
0.162987
0.182162
0.201337
0.220512
0.239687
0.258862
0.278037
0.297211
0.316386
0.335561
0.354736
0.373911
0.393086
0.412261
0.431436
0.450611
0.469786
-0.470695
-0.451483
-0.432271
-0.413059
-0.393847
-0.374635
-0.355423
-0.336211
-0.316999
-0.297787
-0.278575
-0.259363
-0.240151
-0.220939
-0.201727
-0.182515
-0.163302
-0.14409
-0.124878
-0.105666
-0.0864542
-0.0672422
-0.0480301
-0.0288181
-0.00960603
0.00960603
0.0288181
0.0480301
0.0672422
0.0864542
0.105666
0.124878
0.14409
0.163302
0.182515
0.201727
0.220939
0.240151
0.259363
0.278575
0.297787
0.316999
0.336211
0.355423
0.374635
0.393847
0.413059
0.432271
0.451483
0.470695
-0.471681
-0.452428
-0.433176
-0.413924
-0.394671
-0.375419
-0.356167
-0.336915
-0.317662
-0.29841
-0.279158
-0.259906
-0.240653
-0.221401
-0.202149
-0.182897
-0.163644
-0.144392
-0.12514
-0.105887
-0.0866352
-0.0673829
-0.0481307
-0.0288784
-0.00962613
0.00962613
0.0288784
0.0481307
0.0673829
0.0866352
0.105887
0.12514
0.144392
0.163644
0.182897
0.202149
0.221401
0.240653
0.259906
0.279158
0.29841
0.317662
0.336915
0.356167
0.375419
0.394671
0.413924
0.433176
0.452428
0.471681
-0.472737
-0.453442
-0.434147
-0.414851
-0.395556
-0.37626
-0.356965
-0.33767
-0.318374
-0.299079
-0.279783
-0.260488
-0.241193
-0.221897
-0.202602
-0.183306
-0.164011
-0.144716
-0.12542
-0.106125
-0.0868293
-0.0675339
-0.0482385
-0.0289431
-0.0096477
0.0096477
0.0289431
0.0482385
0.0675339
0.0868293
0.106125
0.12542
0.144716
0.164011
0.183306
0.202602
0.221897
0.241193
0.260488
0.279783
0.299079
0.318374
0.33767
0.356965
0.37626
0.395556
0.414851
0.434147
0.453442
0.472737
-0.473862
-0.45452
-0.435179
-0.415838
-0.396496
-0.377155
-0.357814
-0.338473
-0.319131
-0.29979
-0.280449
-0.261107
-0.241766
-0.222425
-0.203084
-0.183742
-0.164401
-0.14506
-0.125718
-0.106377
-0.0870358
-0.0676945
-0.0483532
-0.0290119
-0.00967064
0.00967064
0.0290119
0.0483532
0.0676945
0.0870358
0.106377
0.125718
0.14506
0.164401
0.183742
0.203084
0.222425
0.241766
0.261107
0.280449
0.29979
0.319131
0.338473
0.357814
0.377155
0.396496
0.415838
0.435179
0.45452
0.473862
-0.475048
-0.455659
-0.436269
-0.416879
-0.397489
-0.3781
-0.35871
-0.33932
-0.319931
-0.300541
-0.281151
-0.261761
-0.242372
-0.222982
-0.203592
-0.184202
-0.164813
-0.145423
-0.126033
-0.106644
-0.0872538
-0.0678641
-0.0484743
-0.0290846
-0.00969487
0.00969487
0.0290846
0.0484743
0.0678641
0.0872538
0.106644
0.126033
0.145423
0.164813
0.184202
0.203592
0.222982
0.242372
0.261761
0.281151
0.300541
0.319931
0.33932
0.35871
0.3781
0.397489
0.416879
0.436269
0.455659
0.475048
-0.476293
-0.456853
-0.437412
-0.417972
-0.398531
-0.379091
-0.35965
-0.340209
-0.320769
-0.301328
-0.281888
-0.262447
-0.243007
-0.223566
-0.204126
-0.184685
-0.165245
-0.145804
-0.126364
-0.106923
-0.0874824
-0.0680419
-0.0486013
-0.0291608
-0.00972027
0.00972027
0.0291608
0.0486013
0.0680419
0.0874824
0.106923
0.126364
0.145804
0.165245
0.184685
0.204126
0.223566
0.243007
0.262447
0.281888
0.301328
0.320769
0.340209
0.35965
0.379091
0.398531
0.417972
0.437412
0.456853
0.476293
-0.477591
-0.458097
-0.438604
-0.41911
-0.399617
-0.380123
-0.36063
-0.341136
-0.321643
-0.302149
-0.282656
-0.263162
-0.243669
-0.224175
-0.204682
-0.185188
-0.165695
-0.146201
-0.126708
-0.107214
-0.0877208
-0.0682273
-0.0487338
-0.0292403
-0.00974675
0.00974675
0.0292403
0.0487338
0.0682273
0.0877208
0.107214
0.126708
0.146201
0.165695
0.185188
0.204682
0.224175
0.243669
0.263162
0.282656
0.302149
0.321643
0.341136
0.36063
0.380123
0.399617
0.41911
0.438604
0.458097
0.477591
-0.478937
-0.459388
-0.43984
-0.420291
-0.400743
-0.381194
-0.361646
-0.342098
-0.322549
-0.303001
-0.283452
-0.263904
-0.244355
-0.224807
-0.205259
-0.18571
-0.166162
-0.146613
-0.127065
-0.107516
-0.0879679
-0.0684195
-0.0488711
-0.0293226
-0.00977421
0.00977421
0.0293226
0.0488711
0.0684195
0.0879679
0.107516
0.127065
0.146613
0.166162
0.18571
0.205259
0.224807
0.244355
0.263904
0.283452
0.303001
0.322549
0.342098
0.361646
0.381194
0.400743
0.420291
0.43984
0.459388
0.478937
-0.480325
-0.46072
-0.441114
-0.421509
-0.401904
-0.382299
-0.362694
-0.343089
-0.323484
-0.303879
-0.284274
-0.264669
-0.245064
-0.225458
-0.205853
-0.186248
-0.166643
-0.147038
-0.127433
-0.107828
-0.0882229
-0.0686178
-0.0490127
-0.0294076
-0.00980254
0.00980254
0.0294076
0.0490127
0.0686178
0.0882229
0.107828
0.127433
0.147038
0.166643
0.186248
0.205853
0.225458
0.245064
0.264669
0.284274
0.303879
0.323484
0.343089
0.362694
0.382299
0.401904
0.421509
0.441114
0.46072
0.480325
-0.48175
-0.462087
-0.442423
-0.42276
-0.403097
-0.383434
-0.36377
-0.344107
-0.324444
-0.30478
-0.285117
-0.265454
-0.245791
-0.226127
-0.206464
-0.186801
-0.167138
-0.147474
-0.127811
-0.108148
-0.0884847
-0.0688214
-0.0491581
-0.0294949
-0.00983163
0.00983163
0.0294949
0.0491581
0.0688214
0.0884847
0.108148
0.127811
0.147474
0.167138
0.186801
0.206464
0.226127
0.245791
0.265454
0.285117
0.30478
0.324444
0.344107
0.36377
0.383434
0.403097
0.42276
0.442423
0.462087
0.48175
-0.483207
-0.463484
-0.443761
-0.424038
-0.404316
-0.384593
-0.36487
-0.345148
-0.325425
-0.305702
-0.285979
-0.266257
-0.246534
-0.226811
-0.207089
-0.187366
-0.167643
-0.14792
-0.128198
-0.108475
-0.0887522
-0.0690295
-0.0493068
-0.0295841
-0.00986136
0.00986136
0.0295841
0.0493068
0.0690295
0.0887522
0.108475
0.128198
0.14792
0.167643
0.187366
0.207089
0.226811
0.246534
0.266257
0.285979
0.305702
0.325425
0.345148
0.36487
0.384593
0.404316
0.424038
0.443761
0.463484
0.483207
-0.484689
-0.464906
-0.445123
-0.42534
-0.405556
-0.385773
-0.36599
-0.346207
-0.326423
-0.30664
-0.286857
-0.267074
-0.24729
-0.227507
-0.207724
-0.187941
-0.168157
-0.148374
-0.128591
-0.108808
-0.0890246
-0.0692413
-0.0494581
-0.0296749
-0.00989162
0.00989162
0.0296749
0.0494581
0.0692413
0.0890246
0.108808
0.128591
0.148374
0.168157
0.187941
0.207724
0.227507
0.24729
0.267074
0.286857
0.30664
0.326423
0.346207
0.36599
0.385773
0.405556
0.42534
0.445123
0.464906
0.484689
-0.486192
-0.466348
-0.446503
-0.426658
-0.406814
-0.386969
-0.367125
-0.34728
-0.327436
-0.307591
-0.287746
-0.267902
-0.248057
-0.228213
-0.208368
-0.188524
-0.168679
-0.148834
-0.12899
-0.109145
-0.0893006
-0.069456
-0.0496115
-0.0297669
-0.00992229
0.00992229
0.0297669
0.0496115
0.069456
0.0893006
0.109145
0.12899
0.148834
0.168679
0.188524
0.208368
0.228213
0.248057
0.267902
0.287746
0.307591
0.327436
0.34728
0.367125
0.386969
0.406814
0.426658
0.446503
0.466348
0.486192
-0.48771
-0.467803
-0.447897
-0.42799
-0.408084
-0.388177
-0.368271
-0.348364
-0.328458
-0.308551
-0.288645
-0.268738
-0.248831
-0.228925
-0.209018
-0.189112
-0.169205
-0.149299
-0.129392
-0.109486
-0.0895793
-0.0696728
-0.0497663
-0.0298598
-0.00995326
0.00995326
0.0298598
0.0497663
0.0696728
0.0895793
0.109486
0.129392
0.149299
0.169205
0.189112
0.209018
0.228925
0.248831
0.268738
0.288645
0.308551
0.328458
0.348364
0.368271
0.388177
0.408084
0.42799
0.447897
0.467803
0.48771
-0.489236
-0.469267
-0.449298
-0.429329
-0.409361
-0.389392
-0.369423
-0.349454
-0.329485
-0.309517
-0.289548
-0.269579
-0.24961
-0.229641
-0.209673
-0.189704
-0.169735
-0.149766
-0.129797
-0.109828
-0.0898596
-0.0698908
-0.049922
-0.0299532
-0.00998441
0.00998441
0.0299532
0.049922
0.0698908
0.0898596
0.109828
0.129797
0.149766
0.169735
0.189704
0.209673
0.229641
0.24961
0.269579
0.289548
0.309517
0.329485
0.349454
0.369423
0.389392
0.409361
0.429329
0.449298
0.469267
0.489236
)
;

boundaryField
{
    left
    {
        type            calculated;
        value           nonuniform List<scalar> 
50
(
-0.49922
-0.497663
-0.496114
-0.49458
-0.493068
-0.491581
-0.490127
-0.48871
-0.487337
-0.486013
-0.484743
-0.483532
-0.482385
-0.481306
-0.480301
-0.479373
-0.478526
-0.477764
-0.47709
-0.476506
-0.476016
-0.475621
-0.475324
-0.475125
-0.475025
-0.475025
-0.475125
-0.475324
-0.475621
-0.476016
-0.476506
-0.47709
-0.477764
-0.478526
-0.479373
-0.480301
-0.481306
-0.482385
-0.483532
-0.484743
-0.486013
-0.487337
-0.48871
-0.490127
-0.491581
-0.493068
-0.49458
-0.496114
-0.497663
-0.49922
)
;
    }
    right
    {
        type            calculated;
        value           nonuniform List<scalar> 
50
(
0.49922
0.497663
0.496114
0.49458
0.493068
0.491581
0.490127
0.48871
0.487337
0.486013
0.484743
0.483532
0.482385
0.481306
0.480301
0.479373
0.478526
0.477764
0.47709
0.476506
0.476016
0.475621
0.475324
0.475125
0.475025
0.475025
0.475125
0.475324
0.475621
0.476016
0.476506
0.47709
0.477764
0.478526
0.479373
0.480301
0.481306
0.482385
0.483532
0.484743
0.486013
0.487337
0.48871
0.490127
0.491581
0.493068
0.49458
0.496114
0.497663
0.49922
)
;
    }
    up
    {
        type            calculated;
        value           nonuniform List<scalar> 
50
(
-0.49
-0.47
-0.45
-0.43
-0.41
-0.39
-0.37
-0.35
-0.33
-0.31
-0.29
-0.27
-0.25
-0.23
-0.21
-0.19
-0.17
-0.15
-0.13
-0.11
-0.09
-0.07
-0.05
-0.03
-0.01
0.01
0.03
0.05
0.07
0.09
0.11
0.13
0.15
0.17
0.19
0.21
0.23
0.25
0.27
0.29
0.31
0.33
0.35
0.37
0.39
0.41
0.43
0.45
0.47
0.49
)
;
    }
    down
    {
        type            calculated;
        value           nonuniform List<scalar> 
50
(
-0.49
-0.47
-0.45
-0.43
-0.41
-0.39
-0.37
-0.35
-0.33
-0.31
-0.29
-0.27
-0.25
-0.23
-0.21
-0.19
-0.17
-0.15
-0.13
-0.11
-0.09
-0.07
-0.05
-0.03
-0.01
0.01
0.03
0.05
0.07
0.09
0.11
0.13
0.15
0.17
0.19
0.21
0.23
0.25
0.27
0.29
0.31
0.33
0.35
0.37
0.39
0.41
0.43
0.45
0.47
0.49
)
;
    }
    frontAndBack
    {
        type            empty;
    }
}


// ************************************************************************* //
