/*--------------------------------*- C++ -*----------------------------------*\
  =========                 |
  \\      /  F ield         | OpenFOAM: The Open Source CFD Toolbox
   \\    /   O peration     | Website:  https://openfoam.org
    \\  /    A nd           | Version:  6
     \\/     M anipulation  |
\*---------------------------------------------------------------------------*/
FoamFile
{
    version     2.0;
    format      ascii;
    class       volScalarField;
    location    "3200";
    object      p;
}
// * * * * * * * * * * * * * * * * * * * * * * * * * * * * * * * * * * * * * //

dimensions      [0 2 -2 0 0 0 0];

internalField   nonuniform List<scalar> 
2500
(
0.954159
0.42298
0.27015
0.200545
0.157835
0.130529
0.111615
0.0977301
0.0871139
0.0787482
0.0720063
0.0664812
0.0618972
0.0580607
0.0548317
0.0521067
0.0498077
0.047875
0.0462629
0.0449357
0.043866
0.043033
0.042421
0.0420189
0.0418195
0.0418195
0.0420189
0.042421
0.043033
0.043866
0.0449357
0.0462629
0.047875
0.0498077
0.0521067
0.0548317
0.0580607
0.0618972
0.0664812
0.0720063
0.0787482
0.0871139
0.0977301
0.111615
0.130529
0.157835
0.200545
0.27015
0.42298
0.954159
0.683015
0.363204
0.260315
0.198407
0.157822
0.131048
0.112146
0.0981661
0.0874512
0.0790065
0.0722065
0.0666405
0.0620282
0.0581724
0.0549303
0.0521966
0.0498918
0.0479554
0.0463409
0.0450122
0.0439417
0.0431082
0.0424959
0.0420937
0.0418943
0.0418943
0.0420937
0.0424959
0.0431082
0.0439417
0.0450122
0.0463409
0.0479554
0.0498918
0.0521966
0.0549303
0.0581724
0.0620282
0.0666405
0.0722065
0.0790065
0.0874512
0.0981661
0.112146
0.131048
0.157822
0.198407
0.260315
0.363204
0.683015
0.494189
0.308762
0.244669
0.191972
0.155317
0.130088
0.111756
0.0980015
0.0873788
0.0789729
0.0721908
0.0666346
0.0620291
0.0581789
0.0549421
0.0522132
0.0499129
0.0479807
0.0463699
0.0450444
0.0439765
0.0431451
0.0425344
0.0421333
0.0419344
0.0419344
0.0421333
0.0425344
0.0431451
0.0439765
0.0450444
0.0463699
0.0479807
0.0499129
0.0522132
0.0549421
0.0581789
0.0620291
0.0666346
0.0721908
0.0789729
0.0873788
0.0980015
0.111756
0.130088
0.155317
0.191972
0.244669
0.308762
0.494189
0.381161
0.266366
0.224375
0.181265
0.149895
0.127155
0.110039
0.0969278
0.0866632
0.0784701
0.0718226
0.0663563
0.0618141
0.0580103
0.0548086
0.052107
0.0498281
0.0479129
0.0463157
0.0450009
0.0439415
0.0431165
0.0425104
0.0421122
0.0419148
0.0419148
0.0421122
0.0425104
0.0431165
0.0439415
0.0450009
0.0463157
0.0479129
0.0498281
0.052107
0.0548086
0.0580103
0.0618141
0.0663563
0.0718226
0.0784701
0.0866632
0.0969278
0.110039
0.127155
0.149895
0.181265
0.224375
0.266366
0.381161
0.301302
0.229867
0.202368
0.168444
0.142603
0.122773
0.107272
0.0950953
0.0853923
0.0775525
0.0711372
0.0658302
0.0614012
0.0576805
0.0545412
0.0518874
0.0496457
0.0477597
0.0461853
0.0448886
0.043843
0.0430285
0.0424299
0.0420365
0.0418415
0.0418415
0.0420365
0.0424299
0.0430285
0.043843
0.0448886
0.0461853
0.0477597
0.0496457
0.0518874
0.0545412
0.0576805
0.0614012
0.0658302
0.0711372
0.0775525
0.0853923
0.0950953
0.107272
0.122773
0.142603
0.168444
0.202368
0.229867
0.301302
0.240347
0.19773
0.180776
0.155001
0.134293
0.117437
0.103736
0.092667
0.083664
0.0762816
0.0701756
0.0650845
0.0608108
0.0572045
0.0541515
0.0515637
0.0493734
0.0475274
0.0459844
0.0447122
0.0436856
0.0428853
0.0422968
0.04191
0.0417182
0.0417182
0.04191
0.0422968
0.0428853
0.0436856
0.0447122
0.0459844
0.0475274
0.0493734
0.0515637
0.0541515
0.0572045
0.0608108
0.0650845
0.0701756
0.0762816
0.083664
0.092667
0.103736
0.117437
0.134293
0.155001
0.180776
0.19773
0.240347
0.19416
0.170217
0.160653
0.141664
0.125472
0.111472
0.0996237
0.0897568
0.0815464
0.0746991
0.0689637
0.0641359
0.0600537
0.0565898
0.0536445
0.0511395
0.0490134
0.0472176
0.045714
0.0444725
0.0434696
0.042687
0.0421113
0.0417327
0.0415449
0.0415449
0.0417327
0.0421113
0.042687
0.0434696
0.0444725
0.045714
0.0472176
0.0490134
0.0511395
0.0536445
0.0565898
0.0600537
0.0641359
0.0689637
0.0746991
0.0815464
0.0897568
0.0996237
0.111472
0.125472
0.141664
0.160653
0.170217
0.19416
0.1592
0.147004
0.142392
0.128834
0.116491
0.105128
0.0950966
0.0864658
0.0791027
0.0728448
0.067527
0.0630009
0.059141
0.0558437
0.0530252
0.050618
0.048568
0.0468319
0.0453751
0.0441701
0.0431952
0.0424338
0.0418732
0.0415043
0.0413213
0.0413213
0.0415043
0.0418732
0.0424338
0.0431952
0.0441701
0.0453751
0.0468319
0.048568
0.050618
0.0530252
0.0558437
0.059141
0.0630009
0.067527
0.0728448
0.0791027
0.0864658
0.0950966
0.105128
0.116491
0.128834
0.142392
0.147004
0.1592
0.132326
0.127411
0.126063
0.116754
0.107613
0.098611
0.0902985
0.0828903
0.0763963
0.0707607
0.0658935
0.0616985
0.0580855
0.0549751
0.0522999
0.0500038
0.0480406
0.0463726
0.0449693
0.0438061
0.0428636
0.0421264
0.0415831
0.0412254
0.0410478
0.0410478
0.0412254
0.0415831
0.0421264
0.0428636
0.0438061
0.0449693
0.0463726
0.0480406
0.0500038
0.0522999
0.0549751
0.0580855
0.0616985
0.0658935
0.0707607
0.0763963
0.0828903
0.0902985
0.098611
0.107613
0.116754
0.126063
0.127411
0.132326
0.111267
0.110801
0.111585
0.105541
0.0990161
0.092081
0.0853505
0.0791168
0.0734875
0.068488
0.0640916
0.0602484
0.0569012
0.0539939
0.0514757
0.049302
0.0474348
0.0458424
0.0444987
0.0433822
0.0424757
0.0417657
0.0412418
0.0408965
0.0407251
0.0407251
0.0408965
0.0412418
0.0417657
0.0424757
0.0433822
0.0444987
0.0458424
0.0474348
0.049302
0.0514757
0.0539939
0.0569012
0.0602484
0.0640916
0.068488
0.0734875
0.0791168
0.0853505
0.092081
0.0990161
0.105541
0.111585
0.110801
0.111267
0.0944575
0.0966448
0.0988009
0.0952303
0.0908137
0.0856545
0.0803504
0.0752197
0.0704301
0.0660653
0.0621487
0.0586701
0.055602
0.0529104
0.0505601
0.048518
0.0467547
0.0452445
0.0439656
0.0429001
0.042033
0.0413527
0.04085
0.0405185
0.0403538
0.0403538
0.0405185
0.04085
0.0413527
0.042033
0.0429001
0.0439656
0.0452445
0.0467547
0.048518
0.0505601
0.0529104
0.055602
0.0586701
0.0621487
0.0660653
0.0704301
0.0752197
0.0803504
0.0856545
0.0908137
0.0952303
0.0988009
0.0966448
0.0944575
0.0807945
0.0845039
0.0875216
0.0858045
0.0830683
0.0794138
0.0753746
0.0712615
0.0672721
0.0635281
0.0600909
0.0569827
0.0542021
0.0517348
0.0495607
0.0476577
0.0460047
0.0445821
0.0433726
0.0423617
0.041537
0.0408887
0.0404089
0.0400922
0.0399348
0.0399348
0.0400922
0.0404089
0.0408887
0.041537
0.0423617
0.0433726
0.0445821
0.0460047
0.0476577
0.0495607
0.0517348
0.0542021
0.0569827
0.0600909
0.0635281
0.0672721
0.0712615
0.0753746
0.0794138
0.0830683
0.0858045
0.0875216
0.0845039
0.0807945
0.0694885
0.0740169
0.0775581
0.0772168
0.0758089
0.0734145
0.0704821
0.0672938
0.0640548
0.0609083
0.0579422
0.0552042
0.0527148
0.0504772
0.0484851
0.0467269
0.0451892
0.0438586
0.0427223
0.0417692
0.0409894
0.040375
0.0399196
0.0396186
0.0394689
0.0394689
0.0396186
0.0399196
0.040375
0.0409894
0.0417692
0.0427223
0.0438586
0.0451892
0.0467269
0.0484851
0.0504772
0.0527148
0.0552042
0.0579422
0.0609083
0.0640548
0.0672938
0.0704821
0.0734145
0.0758089
0.0772168
0.0775581
0.0740169
0.0694885
0.0599737
0.064892
0.0687348
0.0694065
0.0690415
0.0676919
0.0657168
0.0633584
0.0608139
0.0582345
0.0557249
0.0533518
0.0511532
0.0491477
0.047341
0.0457313
0.0443128
0.0430776
0.0420176
0.0411247
0.040392
0.0398132
0.0393834
0.039099
0.0389574
0.0389574
0.039099
0.0393834
0.0398132
0.040392
0.0411247
0.0420176
0.0430776
0.0443128
0.0457313
0.047341
0.0491477
0.0511532
0.0533518
0.0557249
0.0582345
0.0608139
0.0633584
0.0657168
0.0676919
0.0690415
0.0694065
0.0687348
0.064892
0.0599737
0.0518437
0.0568962
0.0608963
0.0623081
0.0627564
0.0622656
0.0611103
0.0594887
0.0575794
0.0555318
0.0534592
0.0514413
0.0495299
0.047756
0.046136
0.044677
0.04338
0.0422428
0.0412612
0.0404307
0.0397467
0.0392049
0.0388017
0.0385345
0.0384013
0.0384013
0.0385345
0.0388017
0.0392049
0.0397467
0.0404307
0.0412612
0.0422428
0.04338
0.044677
0.046136
0.047756
0.0495299
0.0514413
0.0534592
0.0555318
0.0575794
0.0594887
0.0611103
0.0622656
0.0627564
0.0623081
0.0608963
0.0568962
0.0518437
0.0448044
0.049844
0.0539084
0.055856
0.0569347
0.0571442
0.0566848
0.0557106
0.0543761
0.0528219
0.0511632
0.0494874
0.0478564
0.0463112
0.0448774
0.0435697
0.0423956
0.0413578
0.0404563
0.0396896
0.0390556
0.0385518
0.038176
0.0379265
0.0378021
0.0378021
0.0379265
0.038176
0.0385518
0.0390556
0.0396896
0.0404563
0.0413578
0.0423956
0.0435697
0.0448774
0.0463112
0.0478564
0.0494874
0.0511632
0.0528219
0.0543761
0.0557106
0.0566848
0.0571442
0.0569347
0.055856
0.0539084
0.049844
0.0448044
0.0386414
0.0435877
0.0476573
0.0499885
0.0515523
0.0523282
0.0524542
0.0520437
0.0512246
0.0501236
0.048853
0.0475035
0.0461436
0.0448221
0.0435722
0.0424152
0.0413641
0.0404264
0.0396059
0.038904
0.0383208
0.0378557
0.037508
0.0372767
0.0371612
0.0371612
0.0372767
0.037508
0.0378557
0.0383208
0.038904
0.0396059
0.0404264
0.0413641
0.0424152
0.0435722
0.0448221
0.0461436
0.0475035
0.048853
0.0501236
0.0512246
0.0520437
0.0524542
0.0523282
0.0515523
0.0499885
0.0476573
0.0435877
0.0386414
0.0331964
0.0380096
0.0420472
0.0446487
0.0465823
0.0478124
0.0484267
0.0485027
0.0481412
0.0474528
0.0465427
0.0455015
0.0444016
0.0432972
0.0422273
0.0412189
0.0402901
0.0394524
0.0387131
0.0380764
0.0375446
0.0371188
0.0367994
0.0365865
0.0364801
0.0364801
0.0365865
0.0367994
0.0371188
0.0375446
0.0380764
0.0387131
0.0394524
0.0402901
0.0412189
0.0422273
0.0432972
0.0444016
0.0455015
0.0465427
0.0474528
0.0481412
0.0485027
0.0484267
0.0478124
0.0465823
0.0446487
0.0420472
0.0380096
0.0331964
0.0283508
0.0330151
0.036998
0.0397854
0.0419974
0.0435881
0.044606
0.0450979
0.0451391
0.0448228
0.0442447
0.0434925
0.0426397
0.041744
0.040849
0.0399862
0.039178
0.0384395
0.037781
0.0372095
0.0367292
0.0363428
0.036052
0.0358577
0.0357604
0.0357604
0.0358577
0.036052
0.0363428
0.0367292
0.0372095
0.037781
0.0384395
0.039178
0.0399862
0.040849
0.041744
0.0426397
0.0434925
0.0442447
0.0448228
0.0451391
0.0450979
0.044606
0.0435881
0.0419974
0.0397854
0.036998
0.0330151
0.0283508
0.024015
0.0285277
0.0324424
0.0353528
0.0377709
0.0396442
0.0409921
0.041836
0.0422284
0.0422447
0.0419697
0.041486
0.0408662
0.0401698
0.0394435
0.0387223
0.038032
0.0373911
0.0368128
0.0363059
0.0358769
0.0355299
0.0352677
0.035092
0.0350039
0.0350039
0.035092
0.0352677
0.0355299
0.0358769
0.0363059
0.0368128
0.0373911
0.038032
0.0387223
0.0394435
0.0401698
0.0408662
0.041486
0.0419697
0.0422447
0.0422284
0.041836
0.0409921
0.0396442
0.0377709
0.0353528
0.0324424
0.0285277
0.024015
0.0201198
0.0244855
0.0283244
0.0313106
0.0338771
0.0359684
0.0375826
0.0387212
0.0394167
0.0397275
0.0397269
0.0394907
0.0390889
0.0385813
0.0380164
0.037432
0.0368564
0.0363111
0.0358114
0.0353684
0.0349902
0.0346822
0.0344484
0.0342913
0.0342123
0.0342123
0.0342913
0.0344484
0.0346822
0.0349902
0.0353684
0.0358114
0.0363111
0.0368564
0.037432
0.0380164
0.0385813
0.0390889
0.0394907
0.0397269
0.0397275
0.0394167
0.0387212
0.0375826
0.0359684
0.0338771
0.0313106
0.0283244
0.0244855
0.0201198
0.0166111
0.0208376
0.0245967
0.0276232
0.0302922
0.0325477
0.0343733
0.0357555
0.0367095
0.0372787
0.0375241
0.037514
0.0373146
0.0369846
0.0365732
0.0361199
0.0356553
0.0352028
0.0347799
0.0343996
0.0340713
0.0338019
0.0335962
0.0334574
0.0333875
0.0333875
0.0334574
0.0335962
0.0338019
0.0340713
0.0343996
0.0347799
0.0352028
0.0356553
0.0361199
0.0365732
0.0369846
0.0373146
0.037514
0.0375241
0.0372787
0.0367095
0.0357555
0.0343733
0.0325477
0.0302922
0.0276232
0.0245967
0.0208376
0.0166111
0.0134459
0.0175419
0.0212193
0.0242592
0.0269939
0.029369
0.0313588
0.0329389
0.0341108
0.0349039
0.0353678
0.0355626
0.0355496
0.0353853
0.0351188
0.0347904
0.0344323
0.0340695
0.0337213
0.0334021
0.0331227
0.0328912
0.0327131
0.0325924
0.0325314
0.0325314
0.0325924
0.0327131
0.0328912
0.0331228
0.0334021
0.0337213
0.0340695
0.0344323
0.0347904
0.0351188
0.0353853
0.0355496
0.0355626
0.0353678
0.0349039
0.0341108
0.0329389
0.0313588
0.029369
0.0269939
0.0242592
0.0212193
0.0175419
0.0134459
0.0105892
0.0145632
0.0181584
0.0211911
0.0239619
0.0264193
0.0285327
0.0302702
0.0316228
0.0326075
0.0332634
0.033642
0.0337992
0.0337885
0.0336579
0.0334477
0.0331912
0.0329146
0.0326385
0.0323785
0.0321468
0.0319522
0.0318011
0.031698
0.0316458
0.0316458
0.031698
0.0318011
0.0319522
0.0321468
0.0323785
0.0326385
0.0329146
0.0331912
0.0334477
0.0336579
0.0337885
0.0337992
0.033642
0.0332634
0.0326075
0.0316228
0.0302702
0.0285327
0.0264193
0.0239619
0.0211911
0.0181584
0.0145632
0.0105892
0.00801219
0.0118719
0.0153849
0.0183946
0.0211774
0.0236861
0.0258881
0.0277474
0.0292466
0.0303929
0.0312154
0.0317572
0.0320684
0.0321988
0.0321946
0.0320957
0.0319355
0.0317412
0.0315343
0.0313315
0.0311459
0.0309871
0.0308623
0.0307765
0.0307328
0.0307328
0.0307765
0.0308623
0.0309871
0.0311459
0.0313315
0.0315343
0.0317412
0.0319355
0.0320957
0.0321946
0.0321988
0.0320684
0.0317572
0.0312154
0.0303929
0.0292466
0.0277474
0.0258881
0.0236861
0.0211774
0.0183946
0.0153849
0.0118719
0.00801219
0.00569073
0.00944272
0.0128738
0.0158482
0.0186234
0.0211574
0.0234179
0.0253672
0.0269823
0.0282623
0.0292271
0.0299122
0.0303614
0.0306204
0.0307329
0.0307378
0.0306684
0.0305522
0.0304114
0.0302635
0.0301222
0.0299981
0.0298987
0.0298296
0.0297941
0.0297941
0.0298296
0.0298987
0.0299981
0.0301222
0.0302635
0.0304114
0.0305522
0.0306684
0.0307378
0.0307329
0.0306204
0.0303614
0.0299122
0.0292271
0.0282623
0.0269823
0.0253672
0.0234179
0.0211574
0.0186234
0.0158482
0.0128738
0.00944272
0.00569073
0.00360414
0.00725372
0.0106035
0.0135326
0.0162844
0.0188216
0.0211147
0.0231261
0.0248293
0.0262169
0.0273013
0.0281104
0.0286818
0.0290569
0.0292763
0.0293775
0.0293931
0.0293506
0.0292725
0.0291769
0.0290782
0.0289873
0.0289124
0.0288594
0.0288319
0.0288319
0.0288594
0.0289124
0.0289873
0.0290782
0.0291769
0.0292725
0.0293506
0.0293931
0.0293775
0.0292763
0.0290569
0.0286818
0.0281104
0.0273013
0.0262169
0.0248293
0.0231261
0.0211147
0.0188216
0.0162844
0.0135326
0.0106035
0.00725372
0.00360414
0.00173444
0.00528595
0.00855472
0.0114309
0.0141459
0.016668
0.0189712
0.02102
0.0227862
0.0242575
0.0254399
0.0263545
0.0270328
0.0275115
0.027828
0.0280178
0.0281124
0.0281389
0.02812
0.0280741
0.0280159
0.0279567
0.0279053
0.0278678
0.027848
0.027848
0.0278678
0.0279053
0.0279567
0.0280159
0.0280741
0.02812
0.0281389
0.0281124
0.0280178
0.027828
0.0275115
0.0270328
0.0263545
0.0254399
0.0242575
0.0227862
0.02102
0.0189712
0.016668
0.0141459
0.0114309
0.00855472
0.00528595
0.00173444
6.57933e-05
0.00352265
0.00671079
0.00952771
0.0121948
0.0146861
0.0169801
0.0190444
0.0208508
0.0223839
0.0236442
0.0246466
0.025417
0.0259871
0.0263909
0.0266615
0.0268289
0.0269198
0.0269564
0.0269573
0.0269375
0.0269085
0.0268795
0.0268567
0.0268443
0.0268443
0.0268567
0.0268795
0.0269085
0.0269375
0.0269573
0.0269564
0.0269198
0.0268289
0.0266615
0.0263909
0.0259871
0.025417
0.0246466
0.0236442
0.0223839
0.0208508
0.0190444
0.0169801
0.0146861
0.0121948
0.00952771
0.00671079
0.00352265
6.5794e-05
-0.001416
0.00194894
0.00505673
0.00780915
0.0104192
0.0128662
0.015134
0.0171944
0.0190207
0.0205954
0.0219148
0.0229884
0.0238364
0.0244861
0.0249675
0.025311
0.0255452
0.0256955
0.0257839
0.0258287
0.025845
0.0258446
0.0258368
0.025828
0.0258225
0.0258225
0.025828
0.0258368
0.0258446
0.025845
0.0258287
0.0257839
0.0256955
0.0255452
0.025311
0.0249675
0.0244861
0.0238364
0.0229884
0.0219148
0.0205954
0.0190207
0.0171944
0.015134
0.0128662
0.0104192
0.00780915
0.00505673
0.00194894
-0.00141599
-0.00272377
0.000551465
0.00357912
0.0062627
0.00880774
0.0111989
0.0134257
0.0154652
0.0172929
0.0188908
0.0202518
0.0213808
0.0222928
0.0230104
0.0235599
0.0239688
0.0242635
0.0244683
0.0246046
0.0246903
0.0247404
0.0247669
0.024779
0.0247835
0.0247846
0.0247846
0.0247835
0.024779
0.0247669
0.0247404
0.0246903
0.0246046
0.0244683
0.0242635
0.0239688
0.0235599
0.0230104
0.0222928
0.0213808
0.0202518
0.0188908
0.0172929
0.0154652
0.0134257
0.0111989
0.00880774
0.0062627
0.00357912
0.000551465
-0.00272377
-0.00386929
-0.000681817
0.00226591
0.00487692
0.00735014
0.00967533
0.0118483
0.0138516
0.0156641
0.0172684
0.0186548
0.0198244
0.0207874
0.0215618
0.0221701
0.0226366
0.0229858
0.0232403
0.0234205
0.023544
0.0236256
0.0236772
0.023708
0.0237248
0.0237321
0.0237321
0.0237248
0.023708
0.0236772
0.0236256
0.023544
0.0234205
0.0232403
0.0229858
0.0226366
0.0221701
0.0215618
0.0207874
0.0198244
0.0186548
0.0172684
0.0156641
0.0138516
0.0118483
0.00967533
0.00735014
0.00487692
0.00226591
-0.000681816
-0.00386929
-0.00486336
-0.00176184
0.00110617
0.00364133
0.00603668
0.00828704
0.0103946
0.0123481
0.0141307
0.0157259
0.0171229
0.0183192
0.0193209
0.0201416
0.0207997
0.0213165
0.0217139
0.0220131
0.0222334
0.0223917
0.0225023
0.0225771
0.0226253
0.0226537
0.0226668
0.0226668
0.0226537
0.0226253
0.0225771
0.0225023
0.0223917
0.0222334
0.0220131
0.0217139
0.0213165
0.0207997
0.0201416
0.0193209
0.0183192
0.0171229
0.0157259
0.0141307
0.0123481
0.0103946
0.00828704
0.00603668
0.00364133
0.00110617
-0.00176183
-0.00486336
-0.00571593
-0.00269852
9.00079e-05
0.00254631
0.0048583
0.00702583
0.00905772
0.0109494
0.0126886
0.0142609
0.0156548
0.016865
0.0178938
0.0187506
0.0194498
0.0200097
0.0204495
0.0207886
0.021045
0.0212349
0.0213722
0.0214684
0.0215326
0.0215717
0.0215901
0.0215901
0.0215717
0.0215326
0.0214684
0.0213722
0.0212349
0.021045
0.0207886
0.0204495
0.0200097
0.0194498
0.0187506
0.0178938
0.016865
0.0156548
0.0142609
0.0126886
0.0109494
0.00905772
0.00702583
0.0048583
0.00254631
9.00084e-05
-0.00269852
-0.00571593
-0.00643613
-0.00350085
-0.000791552
0.00158295
0.00380641
0.00588377
0.00783075
0.00964967
0.0113335
0.0128703
0.0142487
0.015461
0.0165061
0.0173894
0.0181217
0.0187176
0.0191941
0.0195683
0.0198569
0.0200753
0.0202367
0.0203524
0.0204313
0.0204803
0.0205036
0.0205036
0.0204803
0.0204313
0.0203524
0.0202367
0.0200753
0.0198569
0.0195683
0.0191941
0.0187176
0.0181217
0.0173894
0.0165061
0.015461
0.0142487
0.0128703
0.0113335
0.00964967
0.00783075
0.00588377
0.00380641
0.00158295
-0.000791552
-0.00350085
-0.00643613
-0.00703224
-0.00417692
-0.00154662
0.000743002
0.00287285
0.00485312
0.00670672
0.0084431
0.0100607
0.0115509
0.0129024
0.014106
0.0151575
0.0160584
0.0168158
0.0174413
0.0179487
0.0183534
0.0186704
0.0189142
0.0190973
0.0192306
0.0193229
0.0193807
0.0194085
0.0194085
0.0193807
0.0193229
0.0192306
0.0190973
0.0189142
0.0186704
0.0183534
0.0179487
0.0174413
0.0168158
0.0160584
0.0151575
0.014106
0.0129024
0.0115509
0.0100607
0.0084431
0.00670672
0.00485312
0.00287285
0.000743002
-0.00154662
-0.00417692
-0.00703224
-0.00751152
-0.00473385
-0.00218249
1.88149e-05
0.0020498
0.00392627
0.0056786
0.00732358
0.00886546
0.0102988
0.0116134
0.0127985
0.0138472
0.0147575
0.0155329
0.0161814
0.0167145
0.0171451
0.0174869
0.0177529
0.0179553
0.0181043
0.0182085
0.0182743
0.0183061
0.0183061
0.0182743
0.0182085
0.0181043
0.0179553
0.0177529
0.0174869
0.0171451
0.0167145
0.0161814
0.0155329
0.0147575
0.0138472
0.0127985
0.0116134
0.0102988
0.00886546
0.00732358
0.0056786
0.00392627
0.0020498
1.88152e-05
-0.00218249
-0.00473385
-0.00751152
-0.00788004
-0.00517771
-0.00270561
-0.000596764
0.00132967
0.0030956
0.00473923
0.00628479
0.00774236
0.00911008
0.0103787
0.0115366
0.0125743
0.0134864
0.0142729
0.0149387
0.0154923
0.0159445
0.0163073
0.0165926
0.0168118
0.0169746
0.0170893
0.0171621
0.0171975
0.0171975
0.0171621
0.0170893
0.0169746
0.0168118
0.0165926
0.0163073
0.0159445
0.0154923
0.0149387
0.0142729
0.0134864
0.0125743
0.0115366
0.0103787
0.00911008
0.00774236
0.00628479
0.00473923
0.0030956
0.00132967
-0.000596764
-0.00270561
-0.00517771
-0.00788004
-0.00814231
-0.00551338
-0.00312156
-0.00111043
0.000705015
0.00235346
0.00388127
0.0053201
0.00668584
0.00798018
0.00919507
0.0103181
0.0113374
0.0122445
0.013036
0.0137136
0.0142828
0.0147524
0.0151327
0.0154344
0.0156678
0.0158425
0.0159663
0.0160453
0.0160837
0.0160837
0.0160453
0.0159663
0.0158425
0.0156678
0.0154344
0.0151327
0.0147524
0.0142828
0.0137136
0.013036
0.0122445
0.0113374
0.0103181
0.00919507
0.00798018
0.00668584
0.0053201
0.00388127
0.00235346
0.000705016
-0.00111043
-0.00312156
-0.00551338
-0.00814231
-0.00830075
-0.00574426
-0.00343504
-0.00152846
0.000168459
0.00169203
0.00309706
0.00442254
0.00568993
0.00690432
0.00805887
0.00914048
0.010135
0.0110311
0.011822
0.0125062
0.0130866
0.0135697
0.0139639
0.014279
0.0145244
0.014709
0.0148404
0.0149246
0.0149656
0.0149656
0.0149246
0.0148404
0.014709
0.0145244
0.014279
0.0139639
0.0135697
0.0130866
0.0125062
0.011822
0.0110311
0.010135
0.00914048
0.00805887
0.00690432
0.00568993
0.00442254
0.00309706
0.00169202
0.000168459
-0.00152846
-0.00343504
-0.00574426
-0.00830075
-0.00835498
-0.00587194
-0.00364971
-0.00185679
-0.000287448
0.0011032
0.00237862
0.00358477
0.00474828
0.00587733
0.00696613
0.00800083
0.00896523
0.00984506
0.0106304
0.0113167
0.011904
0.0123968
0.0128018
0.0131273
0.0133823
0.0135749
0.0137124
0.0138008
0.0138439
0.0138439
0.0138008
0.0137124
0.0135749
0.0133823
0.0131273
0.0128018
0.0123968
0.011904
0.0113167
0.0106304
0.00984506
0.00896523
0.00800083
0.00696613
0.00587733
0.00474828
0.00358477
0.00237862
0.0011032
-0.000287448
-0.00185679
-0.00364971
-0.00587194
-0.00835498
-0.00830076
-0.00589569
-0.00376816
-0.00210108
-0.000670351
0.0005785
0.00171748
0.002799
0.00385414
0.00489367
0.00591254
0.00689606
0.00782597
0.00868518
0.00946072
0.0101449
0.0107355
0.0112344
0.0116469
0.0119801
0.0122422
0.0124408
0.012583
0.0126745
0.0127193
0.0127193
0.0126745
0.012583
0.0124408
0.0122422
0.0119801
0.0116469
0.0112344
0.0107355
0.0101449
0.00946072
0.00868518
0.00782597
0.00689605
0.00591254
0.00489367
0.00385414
0.002799
0.00171748
0.0005785
-0.000670351
-0.00210108
-0.00376816
-0.00589569
-0.00830076
-0.00812869
-0.00581202
-0.00379198
-0.00226701
-0.000988438
0.0001087
0.00110447
0.00205675
0.00300016
0.0039473
0.0048934
0.00582272
0.00671489
0.00755006
0.00831224
0.00899089
0.0095811
0.0100828
0.0104998
0.010838
0.0111048
0.0113074
0.0114528
0.0115465
0.0115923
0.0115923
0.0115465
0.0114528
0.0113074
0.0111048
0.010838
0.0104998
0.0100828
0.0095811
0.00899089
0.00831224
0.00755006
0.00671489
0.00582272
0.0048934
0.0039473
0.00300016
0.00205675
0.00110447
0.0001087
-0.000988438
-0.00226701
-0.00379198
-0.00581202
-0.00812869
-0.00782268
-0.0056141
-0.0037219
-0.00236053
-0.00125071
-0.000316358
0.000529489
0.00134877
0.00217834
0.00303163
0.00390357
0.00477703
0.00562941
0.0064381
0.00718419
0.00785433
0.00844118
0.00894274
0.00936122
0.00970168
0.00997073
0.0101754
0.0103224
0.010417
0.0104634
0.0104634
0.010417
0.0103224
0.0101754
0.00997073
0.00970168
0.00936122
0.00894274
0.00844118
0.00785433
0.00718419
0.0064381
0.00562941
0.00477703
0.00390357
0.00303163
0.00217833
0.00134877
0.000529489
-0.000316358
-0.00125071
-0.00236053
-0.0037219
-0.0056141
-0.00782268
-0.0073573
-0.00528964
-0.0035559
-0.00238576
-0.00146463
-0.000705337
-1.60697e-05
0.000667209
0.00138191
0.00214114
0.00293875
0.00375578
0.00456725
0.00534775
0.00607553
0.00673454
0.00731515
0.00781352
0.00823054
0.0085704
0.00883918
0.0090437
0.00919049
0.00928504
0.00933131
0.00933131
0.00928504
0.00919049
0.0090437
0.00883918
0.0085704
0.00823054
0.00781352
0.00731515
0.00673454
0.00607553
0.00534775
0.00456724
0.00375578
0.00293874
0.00214114
0.0013819
0.000667209
-1.60698e-05
-0.000705337
-0.00146463
-0.00238576
-0.0035559
-0.00528964
-0.0073573
-0.00668949
-0.00481348
-0.00328232
-0.00233784
-0.00162894
-0.00105843
-0.000532792
1.15405e-05
0.00061056
0.0012757
0.00199886
0.00275884
0.00352804
0.00427831
0.00498508
0.0056298
0.00620067
0.00669222
0.0071042
0.00744007
0.00770555
0.00790733
0.00805195
0.00814499
0.00819048
0.00819048
0.00814499
0.00805195
0.00790733
0.00770555
0.00744007
0.0071042
0.00669222
0.00620067
0.0056298
0.00498508
0.00427831
0.00352804
0.00275884
0.00199886
0.0012757
0.00061056
1.15403e-05
-0.000532792
-0.00105843
-0.00162894
-0.00233784
-0.00328232
-0.00481348
-0.00668949
-0.00574553
-0.00414656
-0.00288761
-0.00221668
-0.00175131
-0.0013871
-0.0010335
-0.000630922
-0.000147291
0.000425429
0.00107611
0.00178065
0.00250857
0.00322879
0.003914
0.00454317
0.00510252
0.00558509
0.00598965
0.00631912
0.00657904
0.0067761
0.00691699
0.00700744
0.00705164
0.00705164
0.00700744
0.00691699
0.0067761
0.00657904
0.00631912
0.00598965
0.00558509
0.00510252
0.00454317
0.003914
0.00322879
0.00250857
0.00178065
0.00107611
0.000425429
-0.000147291
-0.000630922
-0.0010335
-0.0013871
-0.00175131
-0.00221668
-0.00288761
-0.00414656
-0.00574553
-0.00445656
-0.00331088
-0.00246231
-0.00215172
-0.00198405
-0.00185409
-0.00168127
-0.00141513
-0.00103155
-0.000529193
7.5059e-05
0.000751968
0.00146633
0.00218276
0.00287018
0.00350448
0.00406954
0.00455694
0.0049647
0.00529561
0.00555549
0.00575157
0.00589113
0.00598044
0.00602409
0.00602409
0.00598044
0.00589113
0.00575157
0.00555549
0.00529561
0.0049647
0.00455694
0.00406954
0.00350448
0.00287018
0.00218276
0.00146633
0.000751968
7.50589e-05
-0.000529193
-0.00103155
-0.00141513
-0.00168127
-0.00185409
-0.00198405
-0.00215172
-0.00246231
-0.00331088
-0.00445656
-0.00294548
-0.00253939
-0.00232039
-0.00247736
-0.00266231
-0.0027846
-0.00278245
-0.00262053
-0.00228774
-0.0017944
-0.00116816
-0.000448131
0.000321591
0.00109798
0.00184382
0.0025306
0.00313954
0.00366116
0.00409371
0.00444114
0.00471093
0.00491214
0.00505376
0.00514351
0.00518699
0.00518699
0.00514351
0.00505376
0.00491214
0.00471093
0.00444114
0.00409371
0.00366116
0.00313954
0.0025306
0.00184382
0.00109798
0.000321591
-0.000448131
-0.00116816
-0.0017944
-0.00228774
-0.00262053
-0.00278245
-0.0027846
-0.00266231
-0.00247736
-0.00232039
-0.00253939
-0.00294548
-0.00159129
-0.00185978
-0.00215097
-0.00250781
-0.00279559
-0.00297363
-0.00301315
-0.00289906
-0.00263201
-0.00222806
-0.00171602
-0.00113275
-0.000517687
9.23931e-05
0.000667225
0.00118518
0.00163363
0.00200802
0.00231009
0.00254584
0.00272353
0.00285209
0.00293984
0.00299364
0.00301843
0.00301843
0.00299364
0.00293984
0.00285209
0.00272353
0.00254584
0.00231009
0.00200802
0.00163363
0.00118518
0.000667225
9.23931e-05
-0.000517687
-0.00113275
-0.00171602
-0.00222806
-0.00263201
-0.00289906
-0.00301315
-0.00297363
-0.00279559
-0.00250781
-0.00215097
-0.00185978
-0.00159129
)
;

boundaryField
{
    left
    {
        type            zeroGradient;
    }
    right
    {
        type            zeroGradient;
    }
    up
    {
        type            fixedValue;
        value           uniform 0;
    }
    down
    {
        type            zeroGradient;
    }
    frontAndBack
    {
        type            empty;
    }
}


// ************************************************************************* //
