/*--------------------------------*- C++ -*----------------------------------*\
  =========                 |
  \\      /  F ield         | OpenFOAM: The Open Source CFD Toolbox
   \\    /   O peration     | Website:  https://openfoam.org
    \\  /    A nd           | Version:  6
     \\/     M anipulation  |
\*---------------------------------------------------------------------------*/
FoamFile
{
    version     2.0;
    format      ascii;
    class       surfaceScalarField;
    location    "3200";
    object      phi;
}
// * * * * * * * * * * * * * * * * * * * * * * * * * * * * * * * * * * * * * //

dimensions      [0 3 -1 0 0 0 0];

internalField   nonuniform List<scalar> 
4900
(
3.20655e-06
7.67934e-05
-3.00664e-07
8.35072e-05
-1.91204e-06
8.16114e-05
-2.81938e-06
8.09073e-05
-3.2923e-06
8.04729e-05
-3.50255e-06
8.02103e-05
-3.55959e-06
8.0057e-05
-3.52247e-06
7.99629e-05
-3.425e-06
7.99025e-05
-3.2875e-06
7.98625e-05
-3.12264e-06
7.98351e-05
-2.93859e-06
7.9816e-05
-2.7408e-06
7.98022e-05
-2.53297e-06
7.97922e-05
-2.31768e-06
7.97847e-05
-2.09679e-06
7.97791e-05
-1.87164e-06
7.97748e-05
-1.64322e-06
7.97716e-05
-1.41229e-06
7.97691e-05
-1.17943e-06
7.97671e-05
-9.45115e-07
7.97657e-05
-7.09716e-07
7.97646e-05
-4.7355e-07
7.97638e-05
-2.36894e-07
7.97633e-05
-1.20397e-17
7.97631e-05
2.36894e-07
7.97631e-05
4.7355e-07
7.97633e-05
7.09716e-07
7.97638e-05
9.45115e-07
7.97646e-05
1.17943e-06
7.97657e-05
1.41229e-06
7.97671e-05
1.64322e-06
7.97691e-05
1.87164e-06
7.97716e-05
2.09679e-06
7.97748e-05
2.31768e-06
7.97791e-05
2.53297e-06
7.97847e-05
2.7408e-06
7.97922e-05
2.93859e-06
7.98022e-05
3.12264e-06
7.9816e-05
3.2875e-06
7.98351e-05
3.425e-06
7.98625e-05
3.52247e-06
7.99025e-05
3.55959e-06
7.99629e-05
3.50255e-06
8.0057e-05
3.2923e-06
8.02103e-05
2.81938e-06
8.04729e-05
1.91204e-06
8.09073e-05
3.00664e-07
8.16114e-05
-3.20655e-06
8.35072e-05
7.67934e-05
8.00781e-06
6.87856e-05
6.47867e-06
8.50364e-05
3.54373e-06
8.45463e-05
1.3138e-06
8.31373e-05
-1.75339e-07
8.19621e-05
-1.13146e-06
8.11664e-05
-1.7283e-06
8.06539e-05
-2.08466e-06
8.03192e-05
-2.27831e-06
8.00962e-05
-2.36001e-06
7.99442e-05
-2.36328e-06
7.98384e-05
-2.31064e-06
7.97633e-05
-2.21744e-06
7.9709e-05
-2.09439e-06
7.96691e-05
-1.94906e-06
7.96394e-05
-1.78691e-06
7.9617e-05
-1.61194e-06
7.95999e-05
-1.42712e-06
7.95868e-05
-1.23475e-06
7.95767e-05
-1.03657e-06
7.9569e-05
-8.3399e-07
7.95631e-05
-6.28142e-07
7.95588e-05
-4.19985e-07
7.95557e-05
-2.10353e-07
7.95537e-05
-2.84814e-17
7.95528e-05
2.10353e-07
7.95528e-05
4.19985e-07
7.95537e-05
6.28142e-07
7.95557e-05
8.3399e-07
7.95588e-05
1.03657e-06
7.95631e-05
1.23475e-06
7.9569e-05
1.42712e-06
7.95767e-05
1.61194e-06
7.95868e-05
1.78691e-06
7.95999e-05
1.94906e-06
7.9617e-05
2.09439e-06
7.96394e-05
2.21744e-06
7.96691e-05
2.31064e-06
7.9709e-05
2.36328e-06
7.97633e-05
2.36001e-06
7.98384e-05
2.27831e-06
7.99442e-05
2.08466e-06
8.00962e-05
1.7283e-06
8.03192e-05
1.13146e-06
8.06539e-05
1.75339e-07
8.11664e-05
-1.3138e-06
8.19621e-05
-3.54373e-06
8.31373e-05
-6.47867e-06
8.45463e-05
-8.00781e-06
8.50364e-05
6.87856e-05
8.52998e-06
6.02557e-05
9.56116e-06
8.40052e-05
7.13428e-06
8.69732e-05
4.55106e-06
8.57205e-05
2.51182e-06
8.40013e-05
1.03511e-06
8.26431e-05
7.9753e-09
8.1681e-05
-6.87997e-07
8.10152e-05
-1.14607e-06
8.05542e-05
-1.4338e-06
8.02319e-05
-1.59888e-06
8.00035e-05
-1.67478e-06
7.98392e-05
-1.68513e-06
7.97194e-05
-1.64676e-06
7.96307e-05
-1.57176e-06
7.95644e-05
-1.46899e-06
7.95142e-05
-1.34497e-06
7.94759e-05
-1.20462e-06
7.94464e-05
-1.05168e-06
7.94238e-05
-8.8909e-07
7.94064e-05
-7.19159e-07
7.93932e-05
-5.43786e-07
7.93834e-05
-3.64564e-07
7.93765e-05
-1.82882e-07
7.9372e-05
-3.15299e-17
7.93699e-05
1.82882e-07
7.93699e-05
3.64564e-07
7.9372e-05
5.43786e-07
7.93765e-05
7.19159e-07
7.93834e-05
8.8909e-07
7.93932e-05
1.05168e-06
7.94064e-05
1.20462e-06
7.94238e-05
1.34497e-06
7.94464e-05
1.46899e-06
7.94759e-05
1.57176e-06
7.95142e-05
1.64676e-06
7.95644e-05
1.68513e-06
7.96307e-05
1.67478e-06
7.97194e-05
1.59888e-06
7.98392e-05
1.4338e-06
8.00035e-05
1.14607e-06
8.02319e-05
6.87997e-07
8.05542e-05
-7.9753e-09
8.10152e-05
-1.03511e-06
8.1681e-05
-2.51182e-06
8.26431e-05
-4.55106e-06
8.40013e-05
-7.13428e-06
8.57205e-05
-9.56116e-06
8.69732e-05
-8.52998e-06
8.40052e-05
6.02557e-05
7.91673e-06
5.23389e-05
1.05432e-05
8.13787e-05
9.22514e-06
8.82913e-05
6.90539e-06
8.80402e-05
4.70756e-06
8.61991e-05
2.93616e-06
8.44145e-05
1.60355e-06
8.30136e-05
6.3593e-07
8.19828e-05
-4.9618e-08
8.12398e-05
-5.23262e-07
8.07056e-05
-8.39198e-07
8.03194e-05
-1.03778e-06
8.00378e-05
-1.14864e-06
7.98302e-05
-1.19349e-06
7.96756e-05
-1.1883e-06
7.95592e-05
-1.14491e-06
7.94708e-05
-1.07216e-06
7.94031e-05
-9.76773e-07
7.9351e-05
-8.63908e-07
7.93109e-05
-7.37602e-07
7.92801e-05
-6.01078e-07
7.92566e-05
-4.56968e-07
7.92393e-05
-3.07491e-07
7.9227e-05
-1.54582e-07
7.92191e-05
-2.07247e-17
7.92153e-05
1.54582e-07
7.92153e-05
3.07491e-07
7.92191e-05
4.56968e-07
7.9227e-05
6.01078e-07
7.92393e-05
7.37602e-07
7.92566e-05
8.63908e-07
7.92801e-05
9.76773e-07
7.93109e-05
1.07216e-06
7.9351e-05
1.14491e-06
7.94031e-05
1.1883e-06
7.94708e-05
1.19349e-06
7.95592e-05
1.14864e-06
7.96756e-05
1.03778e-06
7.98302e-05
8.39198e-07
8.00378e-05
5.23262e-07
8.03194e-05
4.9618e-08
8.07056e-05
-6.3593e-07
8.12398e-05
-1.60355e-06
8.19828e-05
-2.93616e-06
8.30136e-05
-4.70756e-06
8.44145e-05
-6.90539e-06
8.61991e-05
-9.22514e-06
8.80402e-05
-1.05432e-05
8.82913e-05
-7.91673e-06
8.13787e-05
5.23389e-05
6.88996e-06
4.5449e-05
1.04143e-05
7.78544e-05
1.024e-05
8.84655e-05
8.49216e-06
8.97881e-05
6.41901e-06
8.82723e-05
4.54864e-06
8.62849e-05
3.03232e-06
8.45299e-05
1.86561e-06
8.31495e-05
9.95057e-07
8.21104e-05
3.60167e-07
8.13405e-05
-9.23632e-08
8.0772e-05
-4.05408e-07
8.03508e-05
-6.12103e-07
8.00369e-05
-7.37606e-07
7.98011e-05
-8.00901e-07
7.96225e-05
-8.16323e-07
7.94862e-05
-7.94759e-07
7.93815e-05
-7.44549e-07
7.93008e-05
-6.72156e-07
7.92385e-05
-5.82668e-07
7.91906e-05
-4.80161e-07
7.91541e-05
-3.67983e-07
7.91271e-05
-2.48956e-07
7.9108e-05
-1.25547e-07
7.90957e-05
2.41511e-18
7.90897e-05
1.25547e-07
7.90897e-05
2.48956e-07
7.90957e-05
3.67983e-07
7.9108e-05
4.80161e-07
7.91271e-05
5.82668e-07
7.91541e-05
6.72156e-07
7.91906e-05
7.44549e-07
7.92385e-05
7.94759e-07
7.93008e-05
8.16323e-07
7.93815e-05
8.00901e-07
7.94862e-05
7.37606e-07
7.96225e-05
6.12103e-07
7.98011e-05
4.05408e-07
8.00369e-05
9.23632e-08
8.03508e-05
-3.60167e-07
8.0772e-05
-9.95057e-07
8.13405e-05
-1.86561e-06
8.21104e-05
-3.03232e-06
8.31495e-05
-4.54864e-06
8.45299e-05
-6.41901e-06
8.62849e-05
-8.49216e-06
8.82723e-05
-1.024e-05
8.97881e-05
-1.04143e-05
8.84655e-05
-6.88996e-06
7.78544e-05
4.5449e-05
5.77568e-06
3.96733e-05
9.71757e-06
7.39125e-05
1.05188e-05
8.76643e-05
9.45462e-06
9.08523e-05
7.68777e-06
9.00391e-05
5.87292e-06
8.80997e-05
4.28188e-06
8.6121e-05
2.98706e-06
8.44444e-05
1.97597e-06
8.31214e-05
1.20717e-06
8.21093e-05
6.34676e-07
8.13444e-05
2.1722e-07
8.07683e-05
-7.92895e-08
8.03334e-05
-2.81894e-07
8.00037e-05
-4.11649e-07
7.97523e-05
-4.84824e-07
7.95594e-05
-5.13985e-07
7.94107e-05
-5.08882e-07
7.92957e-05
-4.77149e-07
7.92068e-05
-4.24836e-07
7.91383e-05
-3.5682e-07
7.90861e-05
-2.77122e-07
7.90474e-05
-1.89144e-07
7.902e-05
-9.58655e-08
7.90024e-05
3.39154e-17
7.89939e-05
9.58655e-08
7.89939e-05
1.89144e-07
7.90024e-05
2.77122e-07
7.902e-05
3.5682e-07
7.90474e-05
4.24836e-07
7.90861e-05
4.77149e-07
7.91383e-05
5.08882e-07
7.92068e-05
5.13985e-07
7.92957e-05
4.84824e-07
7.94107e-05
4.11649e-07
7.95594e-05
2.81894e-07
7.97523e-05
7.92895e-08
8.00037e-05
-2.1722e-07
8.03334e-05
-6.34676e-07
8.07683e-05
-1.20717e-06
8.13444e-05
-1.97597e-06
8.21093e-05
-2.98706e-06
8.31214e-05
-4.28188e-06
8.44444e-05
-5.87292e-06
8.6121e-05
-7.68777e-06
8.80997e-05
-9.45462e-06
9.00391e-05
-1.05188e-05
9.08523e-05
-9.71757e-06
8.76643e-05
-5.77568e-06
7.39125e-05
3.96733e-05
4.74707e-06
3.49262e-05
8.78307e-06
6.98765e-05
1.03254e-05
8.61219e-05
9.93552e-06
9.12422e-05
8.57246e-06
9.14022e-05
6.92476e-06
8.97474e-05
5.35015e-06
8.76956e-05
3.99252e-06
8.5802e-05
2.88473e-06
8.42292e-05
2.01044e-06
8.29836e-05
1.33609e-06
8.20188e-05
8.25612e-07
8.12788e-05
4.46391e-07
8.07127e-05
1.7106e-07
8.0279e-05
-2.25194e-08
7.99458e-05
-1.51923e-07
7.96888e-05
-2.31006e-07
7.94898e-05
-2.70681e-07
7.93354e-05
-2.79589e-07
7.92157e-05
-2.64645e-07
7.91233e-05
-2.31458e-07
7.90529e-05
-1.84675e-07
7.90006e-05
-1.28243e-07
7.89635e-05
-6.56304e-08
7.89398e-05
6.92218e-17
7.89282e-05
6.56304e-08
7.89282e-05
1.28243e-07
7.89398e-05
1.84675e-07
7.89635e-05
2.31458e-07
7.90006e-05
2.64645e-07
7.90529e-05
2.79589e-07
7.91233e-05
2.70681e-07
7.92157e-05
2.31006e-07
7.93354e-05
1.51923e-07
7.94898e-05
2.25194e-08
7.96888e-05
-1.7106e-07
7.99458e-05
-4.46391e-07
8.0279e-05
-8.25612e-07
8.07127e-05
-1.33609e-06
8.12788e-05
-2.01044e-06
8.20188e-05
-2.88473e-06
8.29836e-05
-3.99252e-06
8.42292e-05
-5.35015e-06
8.5802e-05
-6.92476e-06
8.76956e-05
-8.57246e-06
8.97474e-05
-9.93552e-06
9.14022e-05
-1.03254e-05
9.12422e-05
-8.78307e-06
8.61219e-05
-4.74707e-06
6.98765e-05
3.49262e-05
3.87083e-06
3.10554e-05
7.79993e-06
6.59474e-05
9.85368e-06
8.40682e-05
1.0063e-05
9.10329e-05
9.13797e-06
9.23272e-05
7.72977e-06
9.11556e-05
6.24306e-06
8.91823e-05
4.87958e-06
8.71655e-05
3.71624e-06
8.53926e-05
2.76469e-06
8.39351e-05
2.00723e-06
8.27762e-05
1.41598e-06
8.187e-05
9.61949e-07
8.11667e-05
6.18922e-07
8.06221e-05
3.64675e-07
8.02001e-05
1.80965e-07
7.98725e-05
5.30722e-08
7.96177e-05
-3.08093e-08
7.94193e-05
-8.01543e-08
7.9265e-05
-1.02619e-07
7.91458e-05
-1.04469e-07
7.90548e-05
-9.09218e-08
7.89871e-05
-6.64343e-08
7.89391e-05
-3.49307e-08
7.89083e-05
1.03291e-16
7.88933e-05
3.49307e-08
7.88933e-05
6.64343e-08
7.89083e-05
9.09218e-08
7.89391e-05
1.04469e-07
7.89871e-05
1.02619e-07
7.90548e-05
8.01543e-08
7.91458e-05
3.08093e-08
7.9265e-05
-5.30722e-08
7.94193e-05
-1.80965e-07
7.96177e-05
-3.64675e-07
7.98725e-05
-6.18922e-07
8.02001e-05
-9.61949e-07
8.06221e-05
-1.41598e-06
8.11667e-05
-2.00723e-06
8.187e-05
-2.76469e-06
8.27762e-05
-3.71624e-06
8.39351e-05
-4.87958e-06
8.53926e-05
-6.24306e-06
8.71655e-05
-7.72977e-06
8.91823e-05
-9.13797e-06
9.11556e-05
-1.0063e-05
9.23272e-05
-9.85368e-06
9.10329e-05
-7.79993e-06
8.40682e-05
-3.87083e-06
6.59474e-05
3.10554e-05
3.15461e-06
2.79008e-05
6.86528e-06
6.22367e-05
9.23769e-06
8.16958e-05
9.94377e-06
9.03268e-05
9.44805e-06
9.28229e-05
8.31887e-06
9.22848e-05
6.9722e-06
9.0529e-05
5.65019e-06
8.84875e-05
4.46836e-06
8.65744e-05
3.46644e-06
8.4937e-05
2.6446e-06
8.35981e-05
1.98524e-06
8.25294e-05
1.46483e-06
8.16871e-05
1.05963e-06
8.10273e-05
7.48291e-07
8.05114e-05
5.12537e-07
8.01083e-05
3.37214e-07
7.9793e-05
2.09911e-07
7.95466e-05
1.20511e-07
7.93544e-05
6.07402e-08
7.92056e-05
2.37675e-08
7.90918e-05
3.86206e-09
7.9007e-05
-3.89532e-09
7.89468e-05
-3.8536e-09
7.89083e-05
1.33083e-16
7.88895e-05
3.8536e-09
7.88895e-05
3.89532e-09
7.89083e-05
-3.86207e-09
7.89468e-05
-2.37675e-08
7.9007e-05
-6.07402e-08
7.90918e-05
-1.20511e-07
7.92056e-05
-2.09911e-07
7.93544e-05
-3.37214e-07
7.95466e-05
-5.12537e-07
7.9793e-05
-7.48291e-07
8.01083e-05
-1.05963e-06
8.05114e-05
-1.46483e-06
8.10273e-05
-1.98524e-06
8.16871e-05
-2.6446e-06
8.25294e-05
-3.46644e-06
8.35981e-05
-4.46836e-06
8.4937e-05
-5.65019e-06
8.65744e-05
-6.9722e-06
8.84875e-05
-8.31887e-06
9.0529e-05
-9.44805e-06
9.22848e-05
-9.94377e-06
9.28229e-05
-9.23769e-06
9.03268e-05
-6.86528e-06
8.16958e-05
-3.15461e-06
6.22367e-05
2.79008e-05
2.58204e-06
2.53187e-05
6.02248e-06
5.87963e-05
8.5653e-06
7.91529e-05
9.66187e-06
8.92302e-05
9.56075e-06
9.2924e-05
8.72472e-06
9.31208e-05
7.55277e-06
9.17009e-05
6.30958e-06
8.97307e-05
5.14138e-06
8.77426e-05
4.11392e-06
8.59645e-05
3.24576e-06
8.44662e-05
2.53099e-06
8.32441e-05
1.95289e-06
8.22652e-05
1.4914e-06
8.14887e-05
1.12686e-06
8.0876e-05
8.41603e-07
8.03935e-05
6.2046e-07
8.00141e-05
4.50709e-07
7.97163e-05
3.21791e-07
7.94833e-05
2.2495e-07
7.93024e-05
1.52883e-07
7.91638e-05
9.94114e-08
7.90604e-05
5.92013e-08
7.8987e-05
2.75159e-08
7.894e-05
1.56517e-16
7.8917e-05
-2.75159e-08
7.8917e-05
-5.92013e-08
7.894e-05
-9.94114e-08
7.8987e-05
-1.52883e-07
7.90604e-05
-2.2495e-07
7.91638e-05
-3.21791e-07
7.93024e-05
-4.50709e-07
7.94833e-05
-6.2046e-07
7.97163e-05
-8.41603e-07
8.00141e-05
-1.12686e-06
8.03935e-05
-1.4914e-06
8.0876e-05
-1.95289e-06
8.14887e-05
-2.53099e-06
8.22652e-05
-3.24576e-06
8.32441e-05
-4.11392e-06
8.44662e-05
-5.14138e-06
8.59645e-05
-6.30958e-06
8.77426e-05
-7.55277e-06
8.97307e-05
-8.72472e-06
9.17009e-05
-9.56075e-06
9.31208e-05
-9.66187e-06
9.2924e-05
-8.5653e-06
8.92302e-05
-6.02248e-06
7.91529e-05
-2.58204e-06
5.87963e-05
2.53187e-05
2.12979e-06
2.31889e-05
5.2854e-06
5.56407e-05
7.8913e-06
7.6547e-05
9.28068e-06
8.78408e-05
9.52617e-06
9.26785e-05
8.97912e-06
9.36679e-05
8.00183e-06
9.26782e-05
6.86528e-06
9.08672e-05
5.7375e-06
8.88704e-05
4.7067e-06
8.69953e-05
3.80922e-06
8.53637e-05
3.05144e-06
8.40019e-05
2.42442e-06
8.28922e-05
1.9127e-06
8.20005e-05
1.49909e-06
8.12896e-05
1.16708e-06
8.07255e-05
9.01922e-07
8.02793e-05
6.90864e-07
7.99274e-05
5.23105e-07
7.96511e-05
3.89552e-07
7.9436e-05
2.82525e-07
7.92709e-05
1.9547e-07
7.91475e-05
1.22688e-07
7.90598e-05
5.90951e-08
7.90036e-05
1.73883e-16
7.89761e-05
-5.90951e-08
7.89761e-05
-1.22688e-07
7.90036e-05
-1.9547e-07
7.90598e-05
-2.82525e-07
7.91475e-05
-3.89552e-07
7.92709e-05
-5.23105e-07
7.9436e-05
-6.90864e-07
7.96511e-05
-9.01922e-07
7.99274e-05
-1.16708e-06
8.02793e-05
-1.49909e-06
8.07255e-05
-1.9127e-06
8.12896e-05
-2.42442e-06
8.20005e-05
-3.05144e-06
8.28922e-05
-3.80922e-06
8.40019e-05
-4.7067e-06
8.53637e-05
-5.7375e-06
8.69953e-05
-6.86528e-06
8.88704e-05
-8.00183e-06
9.08672e-05
-8.97912e-06
9.26782e-05
-9.52617e-06
9.36679e-05
-9.28068e-06
9.26785e-05
-7.8913e-06
8.78408e-05
-5.2854e-06
7.6547e-05
-2.12979e-06
5.56407e-05
2.31889e-05
1.77458e-06
2.14144e-05
4.65242e-06
5.27628e-05
7.24771e-06
7.39518e-05
8.84631e-06
8.62423e-05
9.38583e-06
9.2139e-05
9.11145e-06
9.39423e-05
8.33691e-06
9.34527e-05
7.32626e-06
9.18779e-05
6.26038e-06
8.99363e-05
5.24556e-06
8.80101e-05
4.33435e-06
8.62749e-05
3.54538e-06
8.47909e-05
2.87808e-06
8.35595e-05
2.32226e-06
8.25563e-05
1.86384e-06
8.1748e-05
1.488e-06
8.11013e-05
1.18079e-06
8.05865e-05
9.297e-07
8.01785e-05
7.23904e-07
7.98569e-05
5.54107e-07
7.96057e-05
4.12354e-07
7.94126e-05
2.91789e-07
7.92681e-05
1.86403e-07
7.91652e-05
9.08039e-08
7.90992e-05
1.85359e-16
7.90669e-05
-9.08039e-08
7.90669e-05
-1.86403e-07
7.90992e-05
-2.91789e-07
7.91652e-05
-4.12354e-07
7.92681e-05
-5.54107e-07
7.94126e-05
-7.23904e-07
7.96057e-05
-9.297e-07
7.98569e-05
-1.18079e-06
8.01785e-05
-1.488e-06
8.05865e-05
-1.86384e-06
8.11013e-05
-2.32226e-06
8.1748e-05
-2.87808e-06
8.25563e-05
-3.54538e-06
8.35595e-05
-4.33435e-06
8.47909e-05
-5.24556e-06
8.62749e-05
-6.26038e-06
8.80101e-05
-7.32626e-06
8.99363e-05
-8.33691e-06
9.18779e-05
-9.11145e-06
9.34527e-05
-9.38583e-06
9.39423e-05
-8.84631e-06
9.2139e-05
-7.24771e-06
8.62423e-05
-4.65242e-06
7.39518e-05
-1.77458e-06
5.27628e-05
2.14144e-05
1.49584e-06
1.99185e-05
4.11456e-06
5.01441e-05
6.65143e-06
7.14149e-05
8.39107e-06
8.45026e-05
9.17302e-06
9.13571e-05
9.14778e-06
9.39675e-05
8.57513e-06
9.40254e-05
7.70221e-06
9.27508e-05
6.71471e-06
9.09238e-05
5.73216e-06
8.89927e-05
4.82118e-06
8.71859e-05
4.01209e-06
8.56e-05
3.31285e-06
8.42588e-05
2.71902e-06
8.31501e-05
2.22013e-06
8.22469e-05
1.8035e-06
8.1518e-05
1.45631e-06
8.09337e-05
1.16659e-06
8.04682e-05
9.2367e-07
8.00998e-05
7.18197e-07
7.98112e-05
5.42046e-07
7.95888e-05
3.88131e-07
7.9422e-05
2.50189e-07
7.93031e-05
1.22565e-07
7.92268e-05
1.9238e-16
7.91894e-05
-1.22565e-07
7.91894e-05
-2.50189e-07
7.92268e-05
-3.88131e-07
7.93031e-05
-5.42046e-07
7.9422e-05
-7.18197e-07
7.95888e-05
-9.2367e-07
7.98112e-05
-1.16659e-06
8.00998e-05
-1.45631e-06
8.04682e-05
-1.8035e-06
8.09337e-05
-2.22013e-06
8.1518e-05
-2.71902e-06
8.22469e-05
-3.31285e-06
8.31501e-05
-4.01209e-06
8.42588e-05
-4.82118e-06
8.56e-05
-5.73216e-06
8.71859e-05
-6.71471e-06
8.89927e-05
-7.70221e-06
9.09238e-05
-8.57513e-06
9.27508e-05
-9.14778e-06
9.40254e-05
-9.17302e-06
9.39675e-05
-8.39107e-06
9.13571e-05
-6.65143e-06
8.45026e-05
-4.11456e-06
7.14149e-05
-1.49584e-06
5.01441e-05
1.99185e-05
1.27657e-06
1.8642e-05
3.66008e-06
4.77606e-05
6.1097e-06
6.89653e-05
7.9368e-06
8.26755e-05
8.91371e-06
9.03802e-05
9.11052e-06
9.37707e-05
8.73247e-06
9.44034e-05
8.00301e-06
9.34802e-05
7.10578e-06
9.1821e-05
6.16884e-06
8.99296e-05
5.27035e-06
8.80844e-05
4.4513e-06
8.6419e-05
3.72806e-06
8.4982e-05
3.10215e-06
8.3776e-05
2.56713e-06
8.27819e-05
2.1128e-06
8.19723e-05
1.7278e-06
8.13187e-05
1.40095e-06
8.0795e-05
1.12192e-06
8.03789e-05
8.81426e-07
8.00517e-05
6.7129e-07
7.97989e-05
4.84267e-07
7.9609e-05
3.13896e-07
7.94735e-05
1.54302e-07
7.93864e-05
1.9524e-16
7.93437e-05
-1.54302e-07
7.93437e-05
-3.13896e-07
7.93864e-05
-4.84267e-07
7.94735e-05
-6.7129e-07
7.9609e-05
-8.81426e-07
7.97989e-05
-1.12192e-06
8.00517e-05
-1.40095e-06
8.03789e-05
-1.7278e-06
8.0795e-05
-2.1128e-06
8.13187e-05
-2.56713e-06
8.19723e-05
-3.10215e-06
8.27819e-05
-3.72806e-06
8.3776e-05
-4.4513e-06
8.4982e-05
-5.27035e-06
8.6419e-05
-6.16884e-06
8.80844e-05
-7.10578e-06
8.99296e-05
-8.00301e-06
9.1821e-05
-8.73247e-06
9.34802e-05
-9.11052e-06
9.44034e-05
-8.91371e-06
9.37707e-05
-7.9368e-06
9.03802e-05
-6.1097e-06
8.26755e-05
-3.66008e-06
6.89653e-05
-1.27657e-06
4.77606e-05
1.8642e-05
1.10321e-06
1.75387e-05
3.27689e-06
4.55869e-05
5.62383e-06
6.66183e-05
7.49753e-06
8.08018e-05
8.62758e-06
8.92501e-05
9.01844e-06
9.33798e-05
8.8234e-06
9.45985e-05
8.2383e-06
9.40653e-05
7.43923e-06
9.26201e-05
6.55843e-06
9.08104e-05
5.68293e-06
8.89599e-05
4.86309e-06
8.72389e-05
4.12325e-06
8.57218e-05
3.47101e-06
8.44283e-05
2.90414e-06
8.33488e-05
2.41523e-06
8.24612e-05
1.99466e-06
8.17393e-05
1.63225e-06
8.11574e-05
1.31818e-06
8.06929e-05
1.04342e-06
8.03265e-05
7.99786e-07
8.00425e-05
5.79973e-07
7.98288e-05
3.77375e-07
7.96761e-05
1.85943e-07
7.95778e-05
1.95205e-16
7.95297e-05
-1.85943e-07
7.95297e-05
-3.77375e-07
7.95778e-05
-5.79973e-07
7.96761e-05
-7.99786e-07
7.98288e-05
-1.04342e-06
8.00425e-05
-1.31818e-06
8.03265e-05
-1.63225e-06
8.06929e-05
-1.99466e-06
8.11574e-05
-2.41523e-06
8.17393e-05
-2.90414e-06
8.24612e-05
-3.47101e-06
8.33488e-05
-4.12325e-06
8.44283e-05
-4.86309e-06
8.57218e-05
-5.68293e-06
8.72389e-05
-6.55843e-06
8.89599e-05
-7.43923e-06
9.08104e-05
-8.2383e-06
9.26201e-05
-8.8234e-06
9.40653e-05
-9.01844e-06
9.45985e-05
-8.62758e-06
9.33798e-05
-7.49753e-06
8.92501e-05
-5.62383e-06
8.08018e-05
-3.27689e-06
6.66183e-05
-1.10321e-06
4.55869e-05
1.75387e-05
9.65209e-07
1.65735e-05
2.95374e-06
4.35984e-05
5.1917e-06
6.43804e-05
7.0817e-06
7.89118e-05
8.32922e-06
8.80026e-05
8.88689e-06
9.28222e-05
8.86071e-06
9.46247e-05
8.41716e-06
9.45089e-05
7.72075e-06
9.33165e-05
6.90405e-06
9.16271e-05
6.06031e-06
8.98036e-05
5.24782e-06
8.80514e-05
4.49825e-06
8.64714e-05
3.82512e-06
8.51014e-05
3.23056e-06
8.39434e-05
2.71018e-06
8.29816e-05
2.25631e-06
8.21932e-05
1.85997e-06
8.15538e-05
1.51204e-06
8.10409e-05
1.20381e-06
8.06347e-05
9.2725e-07
8.03191e-05
6.75038e-07
8.0081e-05
4.40487e-07
7.99107e-05
2.17417e-07
7.98009e-05
1.92154e-16
7.97471e-05
-2.17417e-07
7.97471e-05
-4.40487e-07
7.98009e-05
-6.75038e-07
7.99107e-05
-9.2725e-07
8.0081e-05
-1.20381e-06
8.03191e-05
-1.51204e-06
8.06347e-05
-1.85997e-06
8.10409e-05
-2.25631e-06
8.15538e-05
-2.71018e-06
8.21932e-05
-3.23056e-06
8.29816e-05
-3.82512e-06
8.39434e-05
-4.49825e-06
8.51014e-05
-5.24782e-06
8.64714e-05
-6.06031e-06
8.80514e-05
-6.90405e-06
8.98036e-05
-7.72075e-06
9.16271e-05
-8.41716e-06
9.33165e-05
-8.86071e-06
9.45089e-05
-8.88689e-06
9.46247e-05
-8.32922e-06
9.28222e-05
-7.0817e-06
8.80026e-05
-5.1917e-06
7.89118e-05
-2.95374e-06
6.43804e-05
-9.65209e-07
4.35984e-05
1.65735e-05
8.54472e-07
1.57191e-05
2.68072e-06
4.17721e-05
4.80937e-06
6.22517e-05
6.69382e-06
7.70273e-05
8.02906e-06
8.66674e-05
8.72815e-06
9.21231e-05
8.85542e-06
9.44974e-05
8.54796e-06
9.48164e-05
7.9559e-06
9.39085e-05
7.20898e-06
9.2374e-05
6.40416e-06
9.06085e-05
5.60608e-06
8.88494e-05
4.85302e-06
8.72245e-05
4.16413e-06
8.57903e-05
3.54592e-06
8.45616e-05
2.99713e-06
8.35304e-05
2.51224e-06
8.26781e-05
2.08365e-06
8.19824e-05
1.70307e-06
8.14214e-05
1.36226e-06
8.09755e-05
1.05341e-06
8.06279e-05
7.69255e-07
8.03652e-05
5.03092e-07
8.01768e-05
2.48656e-07
8.00553e-05
1.87065e-16
7.99958e-05
-2.48656e-07
7.99958e-05
-5.03092e-07
8.00553e-05
-7.69255e-07
8.01768e-05
-1.05341e-06
8.03652e-05
-1.36226e-06
8.06279e-05
-1.70307e-06
8.09755e-05
-2.08365e-06
8.14214e-05
-2.51224e-06
8.19824e-05
-2.99713e-06
8.26781e-05
-3.54592e-06
8.35304e-05
-4.16413e-06
8.45616e-05
-4.85302e-06
8.57903e-05
-5.60608e-06
8.72245e-05
-6.40416e-06
8.88494e-05
-7.20898e-06
9.06085e-05
-7.9559e-06
9.2374e-05
-8.54796e-06
9.39085e-05
-8.85542e-06
9.48164e-05
-8.72815e-06
9.44974e-05
-8.02906e-06
9.21231e-05
-6.69382e-06
8.66674e-05
-4.80937e-06
7.70273e-05
-2.68072e-06
6.22517e-05
-8.54472e-07
4.17721e-05
1.57191e-05
7.64821e-07
1.49542e-05
2.44936e-06
4.00876e-05
4.47207e-06
6.0229e-05
6.33571e-06
7.51637e-05
7.73436e-06
8.52687e-05
8.5519e-06
9.13055e-05
8.81689e-06
9.42324e-05
8.63821e-06
9.4995e-05
8.14997e-06
9.43968e-05
7.4765e-06
9.30475e-05
6.71625e-06
9.13687e-05
5.93866e-06
8.9627e-05
5.18771e-06
8.79754e-05
4.48783e-06
8.64902e-05
3.84981e-06
8.51996e-05
3.27561e-06
8.41046e-05
2.76199e-06
8.31917e-05
2.30286e-06
8.24415e-05
1.89089e-06
8.18334e-05
1.51844e-06
8.1348e-05
1.17799e-06
8.09684e-05
8.62424e-07
8.06807e-05
5.65059e-07
8.04742e-05
2.79592e-07
8.03408e-05
1.79412e-16
8.02754e-05
-2.79592e-07
8.02754e-05
-5.65059e-07
8.03408e-05
-8.62424e-07
8.04742e-05
-1.17799e-06
8.06807e-05
-1.51844e-06
8.09684e-05
-1.89089e-06
8.1348e-05
-2.30286e-06
8.18334e-05
-2.76199e-06
8.24415e-05
-3.27561e-06
8.31917e-05
-3.84981e-06
8.41046e-05
-4.48783e-06
8.51996e-05
-5.18771e-06
8.64902e-05
-5.93866e-06
8.79754e-05
-6.71625e-06
8.9627e-05
-7.4765e-06
9.13687e-05
-8.14997e-06
9.30475e-05
-8.63821e-06
9.43968e-05
-8.81689e-06
9.4995e-05
-8.5519e-06
9.42324e-05
-7.73436e-06
9.13055e-05
-6.33571e-06
8.52687e-05
-4.47207e-06
7.51637e-05
-2.44936e-06
6.0229e-05
-7.64821e-07
4.00876e-05
1.49542e-05
6.91562e-07
1.42627e-05
2.25253e-06
3.85266e-05
4.17485e-06
5.83067e-05
6.0074e-06
7.33312e-05
7.4499e-06
8.38262e-05
8.36553e-06
9.03899e-05
8.75287e-06
9.38451e-05
8.69454e-06
9.50534e-05
8.30787e-06
9.47835e-05
7.70984e-06
9.36455e-05
6.99843e-06
9.20801e-05
6.24642e-06
9.0379e-05
5.50256e-06
8.87193e-05
4.79609e-06
8.71966e-05
4.14191e-06
8.58538e-05
3.54523e-06
8.47013e-05
3.00513e-06
8.37318e-05
2.51718e-06
8.29295e-05
2.07515e-06
8.22754e-05
1.67204e-06
8.17511e-05
1.30074e-06
8.13397e-05
9.54353e-07
8.10271e-05
6.26259e-07
8.08023e-05
3.10162e-07
8.06569e-05
1.69929e-16
8.05855e-05
-3.10162e-07
8.05855e-05
-6.26259e-07
8.06569e-05
-9.54353e-07
8.08023e-05
-1.30074e-06
8.10271e-05
-1.67204e-06
8.13397e-05
-2.07515e-06
8.17511e-05
-2.51718e-06
8.22754e-05
-3.00513e-06
8.29295e-05
-3.54523e-06
8.37318e-05
-4.14191e-06
8.47013e-05
-4.79609e-06
8.58538e-05
-5.50256e-06
8.71966e-05
-6.24642e-06
8.87193e-05
-6.99843e-06
9.0379e-05
-7.70984e-06
9.20801e-05
-8.30787e-06
9.36455e-05
-8.69454e-06
9.47835e-05
-8.75287e-06
9.50534e-05
-8.36553e-06
9.38451e-05
-7.4499e-06
9.03899e-05
-6.0074e-06
8.38262e-05
-4.17485e-06
7.33312e-05
-2.25253e-06
5.83067e-05
-6.91562e-07
3.85266e-05
1.42627e-05
6.31119e-07
1.36316e-05
2.0843e-06
3.70735e-05
3.91288e-06
5.64781e-05
5.70779e-06
7.15362e-05
7.17862e-06
8.23554e-05
8.17462e-06
8.93939e-05
8.66973e-06
9.335e-05
8.72273e-06
9.50004e-05
8.43407e-06
9.50721e-05
7.91207e-06
9.41675e-05
7.25258e-06
9.27396e-05
6.53034e-06
9.11013e-05
5.79794e-06
8.94517e-05
5.08889e-06
8.79057e-05
4.42199e-06
8.65207e-05
3.80561e-06
8.53176e-05
3.24127e-06
8.42961e-05
2.72625e-06
8.34445e-05
2.25548e-06
8.27462e-05
1.82275e-06
8.21838e-05
1.42143e-06
8.1741e-05
1.04486e-06
8.14037e-05
6.86565e-07
8.11606e-05
3.40301e-07
8.10031e-05
1.57779e-16
8.09258e-05
-3.40301e-07
8.09258e-05
-6.86565e-07
8.10031e-05
-1.04486e-06
8.11606e-05
-1.42143e-06
8.14037e-05
-1.82275e-06
8.1741e-05
-2.25548e-06
8.21838e-05
-2.72625e-06
8.27462e-05
-3.24127e-06
8.34445e-05
-3.80561e-06
8.42961e-05
-4.42199e-06
8.53176e-05
-5.08889e-06
8.65207e-05
-5.79794e-06
8.79057e-05
-6.53034e-06
8.94517e-05
-7.25258e-06
9.11013e-05
-7.91207e-06
9.27396e-05
-8.43407e-06
9.41675e-05
-8.72273e-06
9.50721e-05
-8.66973e-06
9.50004e-05
-8.17462e-06
9.335e-05
-7.17862e-06
8.93939e-05
-5.70779e-06
8.23554e-05
-3.91288e-06
7.15362e-05
-2.0843e-06
5.64781e-05
-6.31119e-07
3.70735e-05
1.36316e-05
5.80763e-07
1.30508e-05
1.93978e-06
3.57144e-05
3.68165e-06
5.47362e-05
5.43512e-06
6.97828e-05
6.92208e-06
8.08684e-05
7.98321e-06
8.83328e-05
8.57256e-06
9.27606e-05
8.72768e-06
9.48452e-05
8.53259e-06
9.52672e-05
8.08607e-06
9.46141e-05
7.48053e-06
9.33451e-05
6.7914e-06
9.17904e-05
6.07423e-06
9.01689e-05
5.36624e-06
8.86137e-05
4.68983e-06
8.71971e-05
4.05646e-06
8.5951e-05
3.47006e-06
8.48825e-05
2.92969e-06
8.39848e-05
2.43157e-06
8.32443e-05
1.9703e-06
8.26451e-05
1.5398e-06
8.21715e-05
1.13375e-06
8.18097e-05
7.45857e-07
8.15485e-05
3.69951e-07
8.1379e-05
1.43596e-16
8.12958e-05
-3.69951e-07
8.12958e-05
-7.45857e-07
8.1379e-05
-1.13375e-06
8.15485e-05
-1.5398e-06
8.18097e-05
-1.9703e-06
8.21715e-05
-2.43157e-06
8.26451e-05
-2.92969e-06
8.32443e-05
-3.47006e-06
8.39848e-05
-4.05646e-06
8.48825e-05
-4.68983e-06
8.5951e-05
-5.36624e-06
8.71971e-05
-6.07423e-06
8.86137e-05
-6.7914e-06
9.01689e-05
-7.48053e-06
9.17904e-05
-8.08607e-06
9.33451e-05
-8.53259e-06
9.46141e-05
-8.72768e-06
9.52672e-05
-8.57256e-06
9.48452e-05
-7.98321e-06
9.27606e-05
-6.92208e-06
8.83328e-05
-5.43512e-06
8.08684e-05
-3.68165e-06
6.97828e-05
-1.93978e-06
5.47362e-05
-5.80763e-07
3.57144e-05
1.30508e-05
5.38398e-07
1.25124e-05
1.81492e-06
3.44379e-05
3.47708e-06
5.30741e-05
5.18724e-06
6.80726e-05
6.68088e-06
7.93748e-05
7.79416e-06
8.72195e-05
8.46542e-06
9.20894e-05
8.71355e-06
9.45971e-05
8.60699e-06
9.53738e-05
8.23451e-06
9.49865e-05
7.68403e-06
9.38956e-05
7.03062e-06
9.24438e-05
6.33189e-06
9.08676e-05
5.62822e-06
8.93173e-05
4.94529e-06
8.788e-05
4.2975e-06
8.65988e-05
3.69116e-06
8.54889e-05
3.12719e-06
8.45488e-05
2.60309e-06
8.37684e-05
2.1144e-06
8.31338e-05
1.65564e-06
8.26303e-05
1.22087e-06
8.22445e-05
8.04017e-07
8.19653e-05
3.9905e-07
8.1784e-05
1.26406e-16
8.16948e-05
-3.9905e-07
8.16948e-05
-8.04017e-07
8.1784e-05
-1.22087e-06
8.19653e-05
-1.65564e-06
8.22445e-05
-2.1144e-06
8.26303e-05
-2.60309e-06
8.31338e-05
-3.12719e-06
8.37684e-05
-3.69116e-06
8.45488e-05
-4.2975e-06
8.54889e-05
-4.94529e-06
8.65988e-05
-5.62822e-06
8.788e-05
-6.33189e-06
8.93173e-05
-7.03062e-06
9.08676e-05
-7.68403e-06
9.24438e-05
-8.23451e-06
9.38956e-05
-8.60699e-06
9.49865e-05
-8.71355e-06
9.53738e-05
-8.46542e-06
9.45971e-05
-7.79416e-06
9.20894e-05
-6.68088e-06
8.72195e-05
-5.18724e-06
7.93748e-05
-3.47708e-06
6.80726e-05
-1.81492e-06
5.30741e-05
-5.38398e-07
3.44379e-05
1.25124e-05
5.02399e-07
1.201e-05
1.70639e-06
3.32339e-05
3.29551e-06
5.1485e-05
4.96184e-06
6.64063e-05
6.45491e-06
7.78817e-05
7.60939e-06
8.6065e-05
8.35142e-06
9.13473e-05
8.68378e-06
9.42647e-05
8.66036e-06
9.53972e-05
8.35979e-06
9.52871e-05
7.86473e-06
9.43907e-05
7.24897e-06
9.30596e-05
6.5714e-06
9.15452e-05
5.87494e-06
9.00138e-05
5.18825e-06
8.85667e-05
4.52848e-06
8.72586e-05
3.90429e-06
8.61131e-05
3.31842e-06
8.51347e-05
2.76975e-06
8.43171e-05
2.25479e-06
8.36487e-05
1.76872e-06
8.31163e-05
1.30603e-06
8.27072e-05
8.60931e-07
8.24104e-05
4.27542e-07
8.22174e-05
1.06902e-16
8.21224e-05
-4.27542e-07
8.21224e-05
-8.60931e-07
8.22174e-05
-1.30603e-06
8.24104e-05
-1.76872e-06
8.27072e-05
-2.25479e-06
8.31163e-05
-2.76975e-06
8.36487e-05
-3.31842e-06
8.43171e-05
-3.90429e-06
8.51347e-05
-4.52848e-06
8.61131e-05
-5.18825e-06
8.72586e-05
-5.87494e-06
8.85667e-05
-6.5714e-06
9.00138e-05
-7.24897e-06
9.15452e-05
-7.86473e-06
9.30596e-05
-8.35979e-06
9.43907e-05
-8.66036e-06
9.52871e-05
-8.68378e-06
9.53972e-05
-8.35142e-06
9.42647e-05
-7.60939e-06
9.13473e-05
-6.45491e-06
8.6065e-05
-4.96184e-06
7.78817e-05
-3.29551e-06
6.64063e-05
-1.70639e-06
5.1485e-05
-5.02399e-07
3.32339e-05
1.201e-05
4.71504e-07
1.15385e-05
1.61143e-06
3.2094e-05
3.13373e-06
4.99627e-05
4.75663e-06
6.47834e-05
6.24361e-06
7.63947e-05
7.43008e-06
8.48785e-05
8.23293e-06
9.05445e-05
8.64119e-06
9.38565e-05
8.69536e-06
9.5343e-05
8.46406e-06
9.55184e-05
8.02418e-06
9.48306e-05
7.44741e-06
9.36364e-05
6.79322e-06
9.21993e-05
6.10655e-06
9.07005e-05
5.41863e-06
8.92546e-05
4.74919e-06
8.7928e-05
4.10915e-06
8.67531e-05
3.50309e-06
8.57407e-05
2.93127e-06
8.48889e-05
2.39123e-06
8.41888e-05
1.87884e-06
8.36287e-05
1.38909e-06
8.3197e-05
9.16491e-07
8.2883e-05
4.55372e-07
8.26785e-05
8.41137e-17
8.25777e-05
-4.55372e-07
8.25777e-05
-9.16491e-07
8.26785e-05
-1.38909e-06
8.2883e-05
-1.87884e-06
8.3197e-05
-2.39123e-06
8.36287e-05
-2.93127e-06
8.41888e-05
-3.50309e-06
8.48889e-05
-4.10915e-06
8.57407e-05
-4.74919e-06
8.67531e-05
-5.41863e-06
8.7928e-05
-6.10655e-06
8.92546e-05
-6.79322e-06
9.07005e-05
-7.44741e-06
9.21993e-05
-8.02418e-06
9.36364e-05
-8.46406e-06
9.48306e-05
-8.69536e-06
9.55184e-05
-8.64119e-06
9.5343e-05
-8.23293e-06
9.38565e-05
-7.43008e-06
9.05445e-05
-6.24361e-06
8.48785e-05
-4.75663e-06
7.63947e-05
-3.13373e-06
6.47834e-05
-1.61143e-06
4.99627e-05
-4.71504e-07
3.2094e-05
1.15385e-05
4.44718e-07
1.10938e-05
1.52777e-06
3.10109e-05
2.9889e-06
4.85015e-05
4.56937e-06
6.32029e-05
6.04611e-06
7.4918e-05
7.25686e-06
8.36678e-05
8.11172e-06
8.96896e-05
8.58807e-06
9.33801e-05
8.71429e-06
9.52168e-05
8.54927e-06
9.56834e-05
8.16378e-06
9.5216e-05
7.62686e-06
9.41733e-05
6.99785e-06
9.28284e-05
6.32321e-06
9.13751e-05
5.63638e-06
8.99415e-05
4.95945e-06
8.86049e-05
4.30551e-06
8.7407e-05
3.68092e-06
8.63653e-05
3.08738e-06
8.54825e-05
2.52346e-06
8.47527e-05