/*--------------------------------*- C++ -*----------------------------------*\
  =========                 |
  \\      /  F ield         | OpenFOAM: The Open Source CFD Toolbox
   \\    /   O peration     | Website:  https://openfoam.org
    \\  /    A nd           | Version:  6
     \\/     M anipulation  |
\*---------------------------------------------------------------------------*/
FoamFile
{
    version     2.0;
    format      ascii;
    class       volVectorField;
    location    "3200";
    object      U;
}
// * * * * * * * * * * * * * * * * * * * * * * * * * * * * * * * * * * * * * //

dimensions      [0 1 -1 0 0 0 0];

internalField   nonuniform List<vector> 
2500
(
(0.0485678 0.366015 -3.13898e-19)
(0.0811979 0.404763 5.00426e-19)
(0.0462159 0.401104 -5.38882e-20)
(0.029348 0.400779 -1.13927e-19)
(0.0202392 0.400471 0)
(0.014476 0.400258 0)
(0.0107321 0.400154 0)
(0.00819182 0.400097 0)
(0.00640199 0.400065 4.01524e-20)
(0.005101 0.400045 -3.65852e-21)
(0.00412916 0.400033 -7.00691e-20)
(0.00338527 0.400025 2.44984e-21)
(0.00280305 0.40002 1.65823e-20)
(0.00233789 0.400017 2.82363e-20)
(0.00195897 0.400015 -1.3695e-20)
(0.00164456 0.400013 0)
(0.00137899 0.400012 1.18589e-20)
(0.00115071 0.400011 -2.32961e-20)
(0.000951094 0.400011 5.89702e-21)
(0.000773492 0.40001 5.5419e-21)
(0.000612715 0.40001 0)
(0.000464588 0.40001 -2.5982e-21)
(0.00032566 0.40001 2.59906e-21)
(0.000192982 0.400009 -1.27537e-21)
(6.39307e-05 0.400009 1.27577e-21)
(-6.39307e-05 0.400009 1.27577e-21)
(-0.000192982 0.400009 -1.27537e-21)
(-0.00032566 0.40001 2.59906e-21)
(-0.000464588 0.40001 -2.5982e-21)
(-0.000612715 0.40001 0)
(-0.000773492 0.40001 5.5419e-21)
(-0.000951094 0.400011 5.89702e-21)
(-0.00115071 0.400011 -2.32961e-20)
(-0.00137899 0.400012 1.18589e-20)
(-0.00164456 0.400013 0)
(-0.00195897 0.400015 -1.3695e-20)
(-0.00233789 0.400017 2.82363e-20)
(-0.00280305 0.40002 1.65823e-20)
(-0.00338527 0.400025 2.44984e-21)
(-0.00412916 0.400033 -7.00691e-20)
(-0.005101 0.400045 -3.65852e-21)
(-0.00640199 0.400065 4.01524e-20)
(-0.00819182 0.400097 0)
(-0.0107321 0.400154 0)
(-0.014476 0.400258 0)
(-0.0202392 0.400471 0)
(-0.029348 0.400779 -1.13927e-19)
(-0.0462159 0.401104 -5.38882e-20)
(-0.0811979 0.404763 5.00426e-19)
(-0.0485678 0.366015 -3.13898e-19)
(0.0837944 0.363915 8.25603e-19)
(0.15615 0.425523 0)
(0.10896 0.417364 0)
(0.0778617 0.411236 1.15731e-19)
(0.0566414 0.407152 -2.1053e-19)
(0.04184 0.404637 1.73872e-19)
(0.0316166 0.403121 -7.94326e-20)
(0.0244015 0.402174 0)
(0.0191926 0.401561 0)
(0.0153475 0.401153 0)
(0.012447 0.400872 0)
(0.0102133 0.400676 0)
(0.00845894 0.400534 0)
(0.00705459 0.400431 1.84937e-20)
(0.00590969 0.400354 -1.85013e-20)
(0.00495956 0.400297 -1.67066e-20)
(0.00415722 0.400253 1.67138e-20)
(0.00346792 0.400219 0)
(0.00286549 0.400193 0)
(0.00232982 0.400174 7.29107e-21)
(0.00184517 0.400159 -7.29412e-21)
(0.00139887 0.400148 0)
(0.000980445 0.40014 0)
(0.000580955 0.400135 -1.72379e-21)
(0.000192451 0.400132 1.72444e-21)
(-0.000192451 0.400132 1.72444e-21)
(-0.000580955 0.400135 -1.72379e-21)
(-0.000980445 0.40014 0)
(-0.00139887 0.400148 0)
(-0.00184517 0.400159 -7.29412e-21)
(-0.00232982 0.400174 7.29107e-21)
(-0.00286549 0.400193 0)
(-0.00346792 0.400219 0)
(-0.00415722 0.400253 1.67138e-20)
(-0.00495956 0.400297 -1.67066e-20)
(-0.00590969 0.400354 -1.85013e-20)
(-0.00705459 0.400431 1.84937e-20)
(-0.00845894 0.400534 0)
(-0.0102133 0.400676 0)
(-0.012447 0.400872 0)
(-0.0153475 0.401153 0)
(-0.0191926 0.401561 0)
(-0.0244015 0.402174 0)
(-0.0316166 0.403121 -7.94326e-20)
(-0.04184 0.404637 1.73872e-19)
(-0.0566414 0.407152 -2.1053e-19)
(-0.0778617 0.411236 1.15731e-19)
(-0.10896 0.417364 0)
(-0.15615 0.425523 0)
(-0.0837944 0.363915 -8.25603e-19)
(0.0837678 0.329202 0)
(0.177889 0.429076 0)
(0.145946 0.433188 0)
(0.11441 0.42532 -1.11909e-19)
(0.0873434 0.417655 1.12656e-19)
(0.0665257 0.412182 0)
(0.0512436 0.40853 6.86411e-20)
(0.040025 0.406097 -6.8737e-20)
(0.0317172 0.404454 -5.45041e-20)
(0.0254802 0.403326 5.4503e-20)
(0.0207226 0.402536 0)
(0.0170316 0.401973 0)
(0.0141187 0.401565 0)
(0.0117799 0.401264 0)
(0.00986986 0.40104 1.75742e-20)
(0.00828318 0.400871 -1.75803e-20)
(0.0069427 0.400742 0)
(0.00579096 0.400643 -1.54909e-20)
(0.00478444 0.400567 1.54967e-20)
(0.00388964 0.400508 0)
(0.00308022 0.400464 0)
(0.00233501 0.400431 0)
(0.00163648 0.400408 0)
(0.000969645 0.400393 0)
(0.000321204 0.400386 0)
(-0.000321204 0.400386 0)
(-0.000969645 0.400393 0)
(-0.00163648 0.400408 0)
(-0.00233501 0.400431 0)
(-0.00308022 0.400464 0)
(-0.00388964 0.400508 0)
(-0.00478444 0.400567 1.54967e-20)
(-0.00579096 0.400643 -1.54909e-20)
(-0.0069427 0.400742 0)
(-0.00828318 0.400871 -1.75803e-20)
(-0.00986986 0.40104 1.75742e-20)
(-0.0117799 0.401264 0)
(-0.0141187 0.401565 0)
(-0.0170316 0.401973 0)
(-0.0207226 0.402536 0)
(-0.0254802 0.403326 5.4503e-20)
(-0.0317172 0.404454 -5.45041e-20)
(-0.040025 0.406097 -6.8737e-20)
(-0.0512436 0.40853 6.86411e-20)
(-0.0665257 0.412182 0)
(-0.0873434 0.417655 1.12656e-19)
(-0.11441 0.42532 -1.11909e-19)
(-0.145946 0.433188 0)
(-0.177889 0.429076 0)
(-0.0837678 0.329202 0)
(0.0735364 0.285179 4.38785e-19)
(0.175273 0.41975 -2.08322e-19)
(0.164313 0.444268 0)
(0.139471 0.439601 0)
(0.111633 0.430083 0)
(0.0877669 0.421929 0)
(0.069028 0.415911 0)
(0.0546596 0.411645 0)
(0.0437074 0.408645 0)
(0.0353214 0.406526 0)
(0.0288367 0.405014 0)
(0.0237589 0.403921 0)
(0.0197258 0.40312 -1.96921e-20)
(0.0164738 0.402527 1.96967e-20)
(0.0138104 0.402082 1.75795e-20)
(0.011594 0.401745 -1.75846e-20)
(0.00971936 0.401487 0)
(0.00810765 0.401289 0)
(0.00669867 0.401137 0)
(0.00544589 0.40102 0)
(0.00431259 0.400931 0)
(0.00326918 0.400865 0)
(0.00229116 0.400819 0)
(0.00135754 0.400789 0)
(0.000449697 0.400774 0)
(-0.000449697 0.400774 0)
(-0.00135754 0.400789 0)
(-0.00229116 0.400819 0)
(-0.00326918 0.400865 0)
(-0.00431259 0.400931 0)
(-0.00544589 0.40102 0)
(-0.00669867 0.401137 0)
(-0.00810765 0.401289 0)
(-0.00971936 0.401487 0)
(-0.011594 0.401745 -1.75846e-20)
(-0.0138104 0.402082 1.75795e-20)
(-0.0164738 0.402527 1.96967e-20)
(-0.0197258 0.40312 -1.96921e-20)
(-0.0237589 0.403921 0)
(-0.0288367 0.405014 0)
(-0.0353214 0.406526 0)
(-0.0437074 0.408645 0)
(-0.0546596 0.411645 0)
(-0.069028 0.415911 0)
(-0.0877669 0.421929 0)
(-0.111633 0.430083 0)
(-0.139471 0.439601 0)
(-0.164313 0.444268 0)
(-0.175273 0.41975 -2.08322e-19)
(-0.0735364 0.285179 -3.57276e-20)
(0.0620372 0.246864 0)
(0.162005 0.404427 0)
(0.169772 0.449378 0)
(0.154607 0.451588 0)
(0.129595 0.442561 0)
(0.105225 0.4327 0)
(0.0845986 0.424569 0)
(0.0680062 0.418418 0)
(0.0549443 0.413905 0)
(0.044716 0.410621 0)
(0.0366814 0.408227 0)
(0.0303195 0.406471 0)
(0.0252267 0.405171 0)
(0.0210978 0.4042 0)
(0.0177032 0.403467 0)
(0.014871 0.40291 0)
(0.0124715 0.402482 0)
(0.0104061 0.402153 0)
(0.0085991 0.401899 0)
(0.00699165 0.401704 0)
(0.00553707 0.401556 0)
(0.0041976 0.401446 0)
(0.00294191 0.401368 0)
(0.00174315 0.401319 0)
(0.00057744 0.401294 0)
(-0.00057744 0.401294 0)
(-0.00174315 0.401319 0)
(-0.00294191 0.401368 0)
(-0.0041976 0.401446 0)
(-0.00553707 0.401556 0)
(-0.00699165 0.401704 0)
(-0.0085991 0.401899 0)
(-0.0104061 0.402153 0)
(-0.0124715 0.402482 0)
(-0.014871 0.40291 0)
(-0.0177032 0.403467 0)
(-0.0210978 0.4042 0)
(-0.0252267 0.405171 0)
(-0.0303195 0.406471 0)
(-0.0366814 0.408227 0)
(-0.044716 0.410621 0)
(-0.0549443 0.413905 0)
(-0.0680062 0.418418 0)
(-0.0845986 0.424569 0)
(-0.105225 0.4327 0)
(-0.129595 0.442561 0)
(-0.154607 0.451588 0)
(-0.169772 0.449378 0)
(-0.162005 0.404427 0)
(-0.0620372 0.246864 0)
(0.0514195 0.215342 0)
(0.144759 0.386209 0)
(0.166802 0.448929 0)
(0.161804 0.46019 -9.21538e-20)
(0.141803 0.453855 9.25761e-20)
(0.118888 0.443559 -7.1243e-20)
(0.0977707 0.433888 7.16918e-20)
(0.0798654 0.426033 5.74594e-20)
(0.065261 0.42 -5.77015e-20)
(0.0535371 0.415469 -4.80822e-20)
(0.0441631 0.412092 3.68519e-21)
(0.0366454 0.409573 4.4601e-20)
(0.0305722 0.407686 0)
(0.0256158 0.406263 0)
(0.0215218 0.405182 -1.74659e-20)
(0.0180946 0.404356 3.41502e-20)
(0.0151841 0.403721 -6.67189e-22)
(0.0126748 0.40323 -3.14819e-20)
(0.010477 0.402851 1.54647e-20)
(0.00852029 0.402559 0)
(0.00674868 0.402337 7.1619e-21)
(0.00511664 0.402173 -7.16358e-21)
(0.00358628 0.402056 3.48476e-21)
(0.00212505 0.401982 -3.48549e-21)
(0.000703962 0.401945 0)
(-0.000703962 0.401945 0)
(-0.00212505 0.401982 -3.48549e-21)
(-0.00358628 0.402056 3.48476e-21)
(-0.00511664 0.402173 -7.16358e-21)
(-0.00674868 0.402337 7.1619e-21)
(-0.00852029 0.402559 0)
(-0.010477 0.402851 1.54647e-20)
(-0.0126748 0.40323 -3.14819e-20)
(-0.0151841 0.403721 -6.67189e-22)
(-0.0180946 0.404356 3.41502e-20)
(-0.0215218 0.405182 -1.74659e-20)
(-0.0256158 0.406263 0)
(-0.0305722 0.407686 0)
(-0.0366454 0.409573 4.4601e-20)
(-0.0441631 0.412092 3.68519e-21)
(-0.0535371 0.415469 -4.80822e-20)
(-0.065261 0.42 -5.77015e-20)
(-0.0798654 0.426033 5.74594e-20)
(-0.0977707 0.433888 7.16918e-20)
(-0.118888 0.443559 -7.1243e-20)
(-0.141803 0.453855 9.25761e-20)
(-0.161804 0.46019 -9.21538e-20)
(-0.166802 0.448929 0)
(-0.144759 0.386209 0)
(-0.0514195 0.215342 0)
(0.04232 0.189325 0)
(0.127045 0.36674 0)
(0.158823 0.44401 0)
(0.163048 0.465214 0)
(0.149063 0.463273 -7.56759e-20)
(0.128957 0.453828 1.43925e-19)
(0.108504 0.443356 -6.8243e-20)
(0.0901228 0.434142 0)
(0.0745383 0.426706 0)
(0.0616833 0.42093 4.71144e-20)
(0.0512025 0.416519 -4.72559e-20)
(0.042677 0.413171 2.04728e-20)
(0.0357175 0.410629 -1.24621e-21)
(0.0299946 0.408694 -1.92897e-20)
(0.0252411 0.407214 -1.73458e-20)
(0.0212459 0.406076 1.73549e-20)
(0.017843 0.405197 0)
(0.014903 0.404516 1.53988e-20)
(0.012324 0.403989 -1.54023e-20)
(0.0100254 0.403583 -7.28922e-21)
(0.0079426 0.403274 7.29073e-21)
(0.0060228 0.403044 -3.51574e-21)
(0.00422187 0.402881 6.99318e-21)
(0.00250184 0.402777 -1.75043e-21)
(0.00082881 0.402726 -1.72718e-21)
(-0.00082881 0.402726 -1.72718e-21)
(-0.00250184 0.402777 -1.75043e-21)
(-0.00422187 0.402881 6.99318e-21)
(-0.0060228 0.403044 -3.51574e-21)
(-0.0079426 0.403274 7.29073e-21)
(-0.0100254 0.403583 -7.28922e-21)
(-0.012324 0.403989 -1.54023e-20)
(-0.014903 0.404516 1.53988e-20)
(-0.017843 0.405197 0)
(-0.0212459 0.406076 1.73549e-20)
(-0.0252411 0.407214 -1.73458e-20)
(-0.0299946 0.408694 -1.92897e-20)
(-0.0357175 0.410629 -1.24621e-21)
(-0.042677 0.413171 2.04728e-20)
(-0.0512025 0.416519 -4.72559e-20)
(-0.0616833 0.42093 4.71144e-20)
(-0.0745383 0.426706 0)
(-0.0901228 0.434142 0)
(-0.108504 0.443356 -6.8243e-20)
(-0.128957 0.453828 1.43925e-19)
(-0.149063 0.463273 -7.56759e-20)
(-0.163048 0.465214 0)
(-0.158823 0.44401 0)
(-0.127045 0.36674 0)
(-0.04232 0.189325 0)
(0.034874 0.167972 1.00075e-19)
(0.110563 0.347245 -1.99202e-19)
(0.148233 0.435841 5.87062e-21)
(0.160073 0.466916 8.66008e-20)
(0.152255 0.470488 -7.07337e-20)
(0.135773 0.463035 6.85958e-21)
(0.116869 0.452554 6.45855e-20)
(0.0987368 0.44243 -5.37245e-20)
(0.0827012 0.433803 4.44283e-21)
(0.0690794 0.426857 4.97756e-20)
(0.0577353 0.421413 0)
(0.0483627 0.417203 0)
(0.0406232 0.413962 -1.89916e-20)
(0.034204 0.411468 1.01181e-21)
(0.0288383 0.409545 3.52043e-20)
(0.0243072 0.408057 -1.71865e-20)
(0.0204347 0.406903 1.58317e-20)
(0.0170802 0.406006 -3.11499e-20)
(0.0141321 0.40531 2.27505e-20)
(0.0115009 0.404773 -1.4694e-20)
(0.00911424 0.404363 1.44235e-22)
(0.00691271 0.404059 3.61225e-21)
(0.0048464 0.403843 3.86216e-23)
(0.00287221 0.403704 5.18557e-21)
(0.000951547 0.403637 -1.72104e-21)
(-0.000951547 0.403637 -1.72104e-21)
(-0.00287221 0.403704 5.18557e-21)
(-0.0048464 0.403843 3.86216e-23)
(-0.00691271 0.404059 3.61225e-21)
(-0.00911424 0.404363 1.44235e-22)
(-0.0115009 0.404773 -1.4694e-20)
(-0.0141321 0.40531 2.27505e-20)
(-0.0170802 0.406006 -3.11499e-20)
(-0.0204347 0.406903 1.58317e-20)
(-0.0243072 0.408057 -1.71865e-20)
(-0.0288383 0.409545 3.52043e-20)
(-0.034204 0.411468 1.01181e-21)
(-0.0406232 0.413962 -1.89916e-20)
(-0.0483627 0.417203 0)
(-0.0577353 0.421413 0)
(-0.0690794 0.426857 4.97756e-20)
(-0.0827012 0.433803 4.44283e-21)
(-0.0987368 0.44243 -5.37245e-20)
(-0.116869 0.452554 6.45855e-20)
(-0.135773 0.463035 6.85958e-21)
(-0.152255 0.470488 -7.07337e-20)
(-0.160073 0.466916 8.66008e-20)
(-0.148233 0.435841 5.87062e-21)
(-0.110563 0.347245 -1.99202e-19)
(-0.034874 0.167972 1.00075e-19)
(0.0289176 0.150555 1.7283e-19)
(0.095958 0.328523 -2.11603e-21)
(0.136584 0.425507 -8.24696e-20)
(0.154276 0.465756 7.18695e-20)
(0.152233 0.475435 -7.16438e-20)
(0.139747 0.470887 6.05031e-20)
(0.123014 0.461156 -5.06234e-21)
(0.105726 0.450621 -4.50312e-21)
(0.0897145 0.441087 -5.18774e-20)
(0.0756749 0.433105 0)
(0.0637123 0.426677 0)
(0.0536606 0.421604 0)
(0.045255 0.41764 0)
(0.0382172 0.414555 0)
(0.0322926 0.412155 0)
(0.0272627 0.410287 -1.62708e-20)
(0.0229467 0.40883 1.62862e-20)
(0.0191969 0.407694 -7.59202e-21)
(0.0158939 0.40681 7.59631e-21)
(0.012941 0.406126 0)
(0.0102593 0.405603 0)
(0.00778322 0.405214 -3.48416e-21)
(0.00545771 0.404938 3.48466e-21)
(0.00323487 0.404762 0)
(0.00107176 0.404675 0)
(-0.00107176 0.404675 0)
(-0.00323487 0.404762 0)
(-0.00545771 0.404938 3.48466e-21)
(-0.00778322 0.405214 -3.48416e-21)
(-0.0102593 0.405603 0)
(-0.012941 0.406126 0)
(-0.0158939 0.40681 7.59631e-21)
(-0.0191969 0.407694 -7.59202e-21)
(-0.0229467 0.40883 1.62862e-20)
(-0.0272627 0.410287 -1.62708e-20)
(-0.0322926 0.412155 0)
(-0.0382172 0.414555 0)
(-0.045255 0.41764 0)
(-0.0536606 0.421604 0)
(-0.0637123 0.426677 0)
(-0.0756749 0.433105 0)
(-0.0897145 0.441087 -5.18774e-20)
(-0.105726 0.450621 -4.50312e-21)
(-0.123014 0.461156 -5.06234e-21)
(-0.139747 0.470887 6.05031e-20)
(-0.152233 0.475435 -7.16438e-20)
(-0.154276 0.465756 7.18695e-20)
(-0.136584 0.425507 -8.24696e-20)
(-0.095958 0.328523 -2.11603e-21)
(-0.0289176 0.150555 8.56049e-20)
(0.0241787 0.136337 -1.54693e-22)
(0.0833296 0.310981 -1.51614e-19)
(0.124818 0.413867 1.44057e-19)
(0.14672 0.462262 -6.98391e-20)
(0.149765 0.478216 0)
(0.141315 0.477234 0)
(0.127139 0.468928 5.28988e-20)
(0.111155 0.458492 -1.02555e-19)
(0.0955774 0.448374 3.4569e-21)
(0.0814421 0.439536 3.07108e-21)
(0.0690988 0.43221 4.35171e-20)
(0.0585375 0.426304 0)
(0.0495847 0.421616 1.83147e-20)
(0.0420112 0.417922 -1.83562e-20)
(0.0355855 0.415023 0)
(0.0300978 0.412749 -1.60646e-20)
(0.0253677 0.410967 5.7516e-22)
(0.0212441 0.409571 1.55215e-20)
(0.0176025 0.408482 0)
(0.0143405 0.407637 -7.15235e-21)
(0.0113736 0.40699 1.41759e-20)
(0.00863135 0.406508 -3.56284e-21)
(0.00605377 0.406166 -6.88529e-21)
(0.00358867 0.405947 1.72331e-21)
(0.00118906 0.40584 1.70193e-21)
(-0.00118906 0.40584 1.70193e-21)
(-0.00358867 0.405947 1.72331e-21)
(-0.00605377 0.406166 -6.88529e-21)
(-0.00863135 0.406508 -3.56284e-21)
(-0.0113736 0.40699 1.41759e-20)
(-0.0143405 0.407637 -7.15235e-21)
(-0.0176025 0.408482 0)
(-0.0212441 0.409571 1.55215e-20)
(-0.0253677 0.410967 5.7516e-22)
(-0.0300978 0.412749 -1.60646e-20)
(-0.0355855 0.415023 0)
(-0.0420112 0.417922 -1.83562e-20)
(-0.0495847 0.421616 1.83147e-20)
(-0.0585375 0.426304 0)
(-0.0690988 0.43221 4.35171e-20)
(-0.0814421 0.439536 3.07108e-21)
(-0.0955774 0.448374 3.4569e-21)
(-0.111155 0.458492 -1.02555e-19)
(-0.127139 0.468928 5.28988e-20)
(-0.141315 0.477234 0)
(-0.149765 0.478216 0)
(-0.14672 0.462262 -6.98391e-20)
(-0.124818 0.413867 1.44057e-19)
(-0.0833296 0.310981 -1.51614e-19)
(-0.0241787 0.136337 1.47595e-19)
(0.0203911 0.124653 6.38381e-20)
(0.0725311 0.294779 -6.57756e-20)
(0.113471 0.401561 0)
(0.138181 0.45695 0)
(0.145503 0.479036 0)
(0.140901 0.482041 0)
(0.129471 0.475721 0)
(0.115123 0.465863 0)
(0.100317 0.455503 0)
(0.0863734 0.446025 0)
(0.0738738 0.437918 0)
(0.0629695 0.431236 1.88102e-20)
(0.0535899 0.425841 -1.88689e-20)
(0.0455666 0.421536 0)
(0.0387013 0.418123 0)
(0.0327998 0.415427 0)
(0.0276876 0.413301 0)
(0.0232139 0.411629 0)
(0.0192516 0.410319 7.23991e-21)
(0.0156944 0.4093 -7.24472e-21)
(0.0124536 0.40852 0)
(0.00945439 0.407937 0)
(0.00663272 0.407522 0)
(0.00393251 0.407257 0)
(0.00130309 0.407127 0)
(-0.00130309 0.407127 0)
(-0.00393251 0.407257 0)
(-0.00663272 0.407522 0)
(-0.00945439 0.407937 0)
(-0.0124536 0.40852 0)
(-0.0156944 0.4093 -7.24472e-21)
(-0.0192516 0.410319 7.23991e-21)
(-0.0232139 0.411629 0)
(-0.0276876 0.413301 0)
(-0.0327998 0.415427 0)
(-0.0387013 0.418123 0)
(-0.0455666 0.421536 0)
(-0.0535899 0.425841 -1.88689e-20)
(-0.0629695 0.431236 1.88102e-20)
(-0.0738738 0.437918 0)
(-0.0863734 0.446025 0)
(-0.100317 0.455503 0)
(-0.115123 0.465863 0)
(-0.129471 0.475721 0)
(-0.140901 0.482041 0)
(-0.145503 0.479036 0)
(-0.138181 0.45695 0)
(-0.113471 0.401561 0)
(-0.0725311 0.294779 -6.57756e-20)
(-0.0203911 0.124653 6.38381e-20)
(0.0173316 0.114961 5.55206e-20)
(0.0633234 0.279933 -5.73675e-20)
(0.102816 0.389045 -5.7667e-20)
(0.129201 0.450275 5.63116e-20)
(0.139977 0.478142 5.22241e-20)
(0.138896 0.485349 -5.20979e-20)
(0.130247 0.481448 0)
(0.117749 0.472603 4.47216e-20)
(0.103981 0.462341 -4.49566e-20)
(0.0904785 0.452455 0)
(0.0780285 0.443712 -1.91834e-20)
(0.0669406 0.436331 3.75528e-20)
(0.0572535 0.430266 -8.66303e-22)
(0.0488679 0.425361 -3.43053e-20)
(0.0416265 0.421432 6.76465e-22)
(0.0353577 0.418303 1.61605e-20)
(0.0298975 0.41582 7.54044e-21)
(0.0250991 0.413858 -7.54962e-21)
(0.0208355 0.412315 0)
(0.0169984 0.411111 -7.00458e-21)
(0.0134959 0.410187 7.00898e-21)
(0.0102498 0.409496 -3.39753e-21)
(0.00719285 0.409005 3.39885e-21)
(0.00426539 0.408689 0)
(0.00141352 0.408535 0)
(-0.00141352 0.408535 0)
(-0.00426539 0.408689 0)
(-0.00719285 0.409005 3.39885e-21)
(-0.0102498 0.409496 -3.39753e-21)
(-0.0134959 0.410187 7.00898e-21)
(-0.0169984 0.411111 -7.00458e-21)
(-0.0208355 0.412315 0)
(-0.0250991 0.413858 -7.54962e-21)
(-0.0298975 0.41582 7.54044e-21)
(-0.0353577 0.418303 1.61605e-20)
(-0.0416265 0.421432 6.76465e-22)
(-0.0488679 0.425361 -3.43053e-20)
(-0.0572535 0.430266 -8.66303e-22)
(-0.0669406 0.436331 3.75528e-20)
(-0.0780285 0.443712 -1.91834e-20)
(-0.0904785 0.452455 0)
(-0.103981 0.462341 -4.49566e-20)
(-0.117749 0.472603 4.47216e-20)
(-0.130247 0.481448 0)
(-0.138896 0.485349 -5.20979e-20)
(-0.139977 0.478142 5.22241e-20)
(-0.129201 0.450275 5.63116e-20)
(-0.102816 0.389045 -5.7667e-20)
(-0.0633234 0.279933 -5.73675e-20)
(-0.0173316 0.114961 5.55206e-20)
(0.0148239 0.106831 -4.69052e-20)
(0.0554512 0.266378 -5.30083e-20)
(0.0929657 0.376621 1.02668e-19)
(0.120146 0.442618 -5.71404e-22)
(0.133609 0.475793 -4.935e-20)
(0.135644 0.48725 0)
(0.129698 0.486081 0)
(0.119167 0.478622 -2.11908e-20)
(0.106634 0.468782 2.12948e-20)
(0.093781 0.458728 0)
(0.0815647 0.449507 0)
(0.0704429 0.441525 -1.77442e-20)
(0.060564 0.434842 1.78085e-20)
(0.0519032 0.42936 0)
(0.0443504 0.424921 0)
(0.0377621 0.421356 -1.52839e-20)
(0.0319897 0.418509 1.53097e-20)
(0.0268936 0.416246 0)
(0.0223494 0.41446 0)
(0.0182484 0.413063 0)
(0.0144974 0.411988 0)
(0.0110155 0.411183 0)
(0.00773263 0.410609 0)
(0.00458642 0.410241 0)
(0.00152005 0.410061 0)
(-0.00152005 0.410061 0)
(-0.00458642 0.410241 0)
(-0.00773263 0.410609 0)
(-0.0110155 0.411183 0)
(-0.0144974 0.411988 0)
(-0.0182484 0.413063 0)
(-0.0223494 0.41446 0)
(-0.0268936 0.416246 0)
(-0.0319897 0.418509 1.53097e-20)
(-0.0377621 0.421356 -1.52839e-20)
(-0.0443504 0.424921 0)
(-0.0519032 0.42936 0)
(-0.060564 0.434842 1.78085e-20)
(-0.0704429 0.441525 -1.77442e-20)
(-0.0815647 0.449507 0)
(-0.093781 0.458728 0)
(-0.106634 0.468782 2.12948e-20)
(-0.119167 0.478622 -2.11908e-20)
(-0.129698 0.486081 0)
(-0.135644 0.48725 0)
(-0.133609 0.475793 -4.935e-20)
(-0.120146 0.442618 -5.71404e-22)
(-0.0929657 0.376621 1.02668e-19)
(-0.0554512 0.266378 -5.30083e-20)
(-0.0148239 0.106831 4.69052e-20)
(0.0127329 0.0999269 0)
(0.0486793 0.254012 0)
(0.0839356 0.364486 0)
(0.111252 0.434287 0)
(0.126723 0.472235 0)
(0.131441 0.487862 0)
(0.128041 0.489629 0)
(0.119514 0.483862 0)
(0.108353 0.474743 0)
(0.0963158 0.464758 1.85548e-20)
(0.0844938 0.45523 -1.8644e-20)
(0.0734754 0.446757 -1.7172e-20)
(0.0635148 0.439522 1.72376e-20)
(0.0546641 0.433499 0)
(0.0468647 0.428566 1.54439e-20)
(0.0400057 0.424567 -1.54789e-20)
(0.0339578 0.421352 -7.28058e-21)
(0.028592 0.418783 7.29179e-21)
(0.0237888 0.416747 0)
(0.0194413 0.415149 -6.81734e-21)
(0.0154555 0.413916 6.8231e-21)
(0.0117494 0.412991 0)
(0.00825072 0.412331 0)
(0.00489481 0.411907 -8.18065e-22)
(0.00162244 0.4117 8.18354e-22)
(-0.00162244 0.4117 8.18354e-22)
(-0.00489481 0.411907 -8.18065e-22)
(-0.00825072 0.412331 0)
(-0.0117494 0.412991 0)
(-0.0154555 0.413916 6.8231e-21)
(-0.0194413 0.415149 -6.81734e-21)
(-0.0237888 0.416747 0)
(-0.028592 0.418783 7.29179e-21)
(-0.0339578 0.421352 -7.28058e-21)
(-0.0400057 0.424567 -1.54789e-20)
(-0.0468647 0.428566 1.54439e-20)
(-0.0546641 0.433499 0)
(-0.0635148 0.439522 1.72376e-20)
(-0.0734754 0.446757 -1.7172e-20)
(-0.0844938 0.45523 -1.8644e-20)
(-0.0963158 0.464758 1.85548e-20)
(-0.108353 0.474743 0)
(-0.119514 0.483862 0)
(-0.128041 0.489629 0)
(-0.131441 0.487862 0)
(-0.126723 0.472235 0)
(-0.111252 0.434287 0)
(-0.0839356 0.364486 0)
(-0.0486793 0.254012 0)
(-0.0127329 0.0999269 0)
(0.0109575 0.0939867 0)
(0.0428053 0.242712 0)
(0.0756902 0.35275 -4.1858e-20)
(0.102663 0.425519 -6.14456e-22)
(0.119561 0.467691 4.06423e-20)
(0.126537 0.48732 0)
(0.125476 0.492131 0)
(0.118926 0.488297 0)
(0.109218 0.480161 0)
(0.0981261 0.470476 0)
(0.0868347 0.460814 0)
(0.0760432 0.45197 1.65801e-20)
(0.066104 0.44426 -3.26845e-20)
(0.0571455 0.437741 5.61435e-22)
(0.0491633 0.432337 1.55777e-20)
(0.0420826 0.427916 0)
(0.0357966 0.424334 0)
(0.03019 0.421457 0)
(0.0251503 0.419165 -6.82848e-21)
(0.0205739 0.417361 6.83639e-21)
(0.016368 0.415965 0)
(0.0124499 0.414915 -3.26967e-21)
(0.00874595 0.414166 3.27177e-21)
(0.00518988 0.413684 0)
(0.00172044 0.413448 0)
(-0.00172044 0.413448 0)
(-0.00518988 0.413684 0)
(-0.00874595 0.414166 3.27177e-21)
(-0.0124499 0.414915 -3.26967e-21)
(-0.016368 0.415965 0)
(-0.0205739 0.417361 6.83639e-21)
(-0.0251503 0.419165 -6.82848e-21)
(-0.03019 0.421457 0)
(-0.0357966 0.424334 0)
(-0.0420826 0.427916 0)
(-0.0491633 0.432337 1.55777e-20)
(-0.0571455 0.437741 5.61435e-22)
(-0.066104 0.44426 -3.26845e-20)
(-0.0760432 0.45197 1.65801e-20)
(-0.0868347 0.460814 0)
(-0.0981261 0.470476 0)
(-0.109218 0.480161 0)
(-0.118926 0.488297 0)
(-0.125476 0.492131 0)
(-0.126537 0.48732 0)
(-0.119561 0.467691 4.06423e-20)
(-0.102663 0.425519 -6.14456e-22)
(-0.0756902 0.35275 -4.1858e-20)
(-0.0428053 0.242712 0)
(-0.0109575 0.0939867 0)
(0.00942298 0.0888096 1.72065e-21)
(0.0376627 0.232356 -3.37504e-20)
(0.0681693 0.341472 3.75284e-20)
(0.0944596 0.416495 -5.51898e-20)
(0.112302 0.462355 1.84019e-20)
(0.121136 0.485757 0)
(0.122181 0.493643 0)
(0.117534 0.491921 0)
(0.109315 0.484996 0)
(0.0992612 0.475824 1.69084e-20)
(0.0886125 0.466202 -1.69869e-20)
(0.0781565 0.457113 0)
(0.0683337 0.449014 1.55151e-20)
(0.0593456 0.442053 -3.06494e-20)
(0.0512427 0.436209 1.51252e-20)
(0.0439886 0.431381 0)
(0.0375023 0.42744 0)
(0.031684 0.424255 0)
(0.0264308 0.421706 6.70173e-21)
(0.021644 0.419691 -6.71033e-21)
(0.017233 0.418128 0)
(0.0131155 0.416951 3.21832e-21)
(0.00921732 0.416109 -3.22066e-21)
(0.00547103 0.415567 0)
(0.00181388 0.415301 0)
(-0.00181388 0.415301 0)
(-0.00547103 0.415567 0)
(-0.00921732 0.416109 -3.22066e-21)
(-0.0131155 0.416951 3.21832e-21)
(-0.017233 0.418128 0)
(-0.021644 0.419691 -6.71033e-21)
(-0.0264308 0.421706 6.70173e-21)
(-0.031684 0.424255 0)
(-0.0375023 0.42744 0)
(-0.0439886 0.431381 0)
(-0.0512427 0.436209 1.51252e-20)
(-0.0593456 0.442053 -3.06494e-20)
(-0.0683337 0.449014 1.55151e-20)
(-0.0781565 0.457113 0)
(-0.0886125 0.466202 -1.69869e-20)
(-0.0992612 0.475824 1.69084e-20)
(-0.109315 0.484996 0)
(-0.117534 0.491921 0)
(-0.122181 0.493643 0)
(-0.121136 0.485757 0)
(-0.112302 0.462355 1.84019e-20)
(-0.0944596 0.416495 -5.51898e-20)
(-0.0681693 0.341472 3.75284e-20)
(-0.0376627 0.232356 -3.37504e-20)
(-0.00942298 0.0888096 6.29108e-20)
(0.00807458 0.0842405 2.81629e-20)
(0.0331174 0.222828 -2.94824e-20)
(0.0613036 0.330671 0)
(0.0866802 0.407349 -1.69539e-20)
(0.105075 0.456392 3.36538e-20)
(0.115401 0.483303 -1.68416e-20)
(0.11831 0.494234 0)
(0.11546 0.494746 -1.66734e-20)
(0.108728 0.489222 3.1082e-22)
(0.0997742 0.480758 1.64709e-20)
(0.0898572 0.471343 -1.57294e-20)
(0.0798304 0.462139 1.57995e-20)
(0.0702099 0.453743 0)
(0.0612652 0.446401 -7.30422e-21)
(0.0531013 0.440155 7.32799e-21)
(0.0457214 0.434943 -6.96481e-21)
(0.039072 0.430653 1.65723e-22)
(0.0330715 0.427163 1.46804e-22)
(0.0276281 0.424358 6.69366e-21)
(0.0226497 0.422132 0)
(0.0180489 0.420399 -3.19381e-21)
(0.013745 0.419092 3.19694e-21)
(0.00966404 0.418155 0)
(0.0057378 0.417551 -7.82151e-22)
(0.00190259 0.417255 7.8258e-22)
(-0.00190259 0.417255 7.8258e-22)
(-0.0057378 0.417551 -7.82151e-22)
(-0.00966404 0.418155 0)
(-0.013745 0.419092 3.19694e-21)
(-0.0180489 0.420399 -3.19381e-21)
(-0.0226497 0.422132 0)
(-0.0276281 0.424358 6.69366e-21)
(-0.0330715 0.427163 1.46804e-22)
(-0.039072 0.430653 1.65723e-22)
(-0.0457214 0.434943 -6.96481e-21)
(-0.0531013 0.440155 7.32799e-21)
(-0.0612652 0.446401 -7.30422e-21)
(-0.0702099 0.453743 0)
(-0.0798304 0.462139 1.57995e-20)
(-0.0898572 0.471343 -1.57294e-20)
(-0.0997742 0.480758 1.64709e-20)
(-0.108728 0.489222 3.1082e-22)
(-0.11546 0.494746 -1.66734e-20)
(-0.11831 0.494234 0)
(-0.115401 0.483303 -1.68416e-20)
(-0.105075 0.456392 3.36538e-20)
(-0.0866802 0.407349 -1.69539e-20)
(-0.0613036 0.330671 0)
(-0.0331174 0.222828 -2.94824e-20)
(-0.00807458 0.0842405 2.81629e-20)
(0.00687262 0.0801594 0)
(0.0290635 0.214021 0)
(0.0550239 0.320342 -1.49929e-20)
(0.0793369 0.398175 2.98617e-20)
(0.0979713 0.449939 -3.05371e-20)
(0.109465 0.480079 1.53481e-20)
(0.113998 0.493977 1.56757e-20)
(0.112816 0.496799 -1.5661e-20)
(0.107541 0.492829 -1.54745e-20)
(0.0997203 0.485246 1.55286e-20)
(0.0906025 0.476198 0)
(0.0810834 0.467007 0)
(0.0717415 0.45841 0)
(0.0629078 0.450754 -7.06248e-21)
(0.0547394 0.44415 7.0864e-21)
(0.0472798 0.43858 6.77356e-21)
(0.0405041 0.433956 -1.47169e-22)
(0.0343507 0.430171 -6.65771e-21)
(0.0287406 0.427111 0)
(0.0235895 0.424673 0)
(0.0188147 0.422771 -3.13125e-21)
(0.0143377 0.421331 3.13461e-21)
(0.0100855 0.420298 -1.54187e-21)
(0.00598982 0.419631 2.31118e-21)
(0.00198644 0.419304 -7.68625e-22)
(-0.00198644 0.419304 -7.68625e-22)
(-0.00598982 0.419631 2.31118e-21)
(-0.0100855 0.420298 -1.54187e-21)
(-0.0143377 0.421331 3.13461e-21)
(-0.0188147 0.422771 -3.13125e-21)
(-0.0235895 0.424673 0)
(-0.0287406 0.427111 0)
(-0.0343507 0.430171 -6.65771e-21)
(-0.0405041 0.433956 -1.47169e-22)
(-0.0472798 0.43858 6.77356e-21)
(-0.0547394 0.44415 7.0864e-21)
(-0.0629078 0.450754 -7.06248e-21)
(-0.0717415 0.45841 0)
(-0.0810834 0.467007 0)
(-0.0906025 0.476198 0)
(-0.0997203 0.485246 1.55286e-20)
(-0.107541 0.492829 -1.54745e-20)
(-0.112816 0.496799 -1.5661e-20)
(-0.113998 0.493977 1.56757e-20)
(-0.109465 0.480079 1.53481e-20)
(-0.0979713 0.449939 -3.05371e-20)
(-0.0793369 0.398175 2.98617e-20)
(-0.0550239 0.320342 -1.49929e-20)
(-0.0290635 0.214021 0)
(-0.00687262 0.0801594 0)
(0.00578833 0.0764736 -9.7617e-21)
(0.025418 0.20584 -1.26723e-20)
(0.0492661 0.310465 1.21713e-20)
(0.0724249 0.389043 0)
(0.0910518 0.443109 1.41373e-20)
(0.103433 0.476192 -1.3957e-20)
(0.109358 0.492947 0)
(0.109704 0.498112 0)
(0.105832 0.495815 -1.45643e-20)
(0.0991551 0.489267 1.4608e-20)
(0.0908842 0.480733 0)
(0.0819371 0.471682 7.05033e-21)
(0.0729403 0.462982 -7.07977e-21)
(0.0642792 0.455082 0)
(0.0561595 0.44817 0)
(0.0486641 0.442272 6.57531e-21)
(0.0417981 0.437334 -6.59279e-21)
(0.0355207 0.433263 0)
(0.0297671 0.429955 0)
(0.0244625 0.427308 0)
(0.0195294 0.425235 3.06485e-21)
(0.0148929 0.423662 -3.06843e-21)
(0.0104812 0.422532 1.5113e-21)
(0.00622682 0.421802 -1.51254e-21)
(0.00206536 0.421443 0)
(-0.00206536 0.421443 0)
(-0.00622682 0.421802 -1.51254e-21)
(-0.0104812 0.422532 1.5113e-21)
(-0.0148929 0.423662 -3.06843e-21)
(-0.0195294 0.425235 3.06485e-21)
(-0.0244625 0.427308 0)
(-0.0297671 0.429955 0)
(-0.0355207 0.433263 0)
(-0.0417981 0.437334 -6.59279e-21)
(-0.0486641 0.442272 6.57531e-21)
(-0.0561595 0.44817 0)
(-0.0642792 0.455082 0)
(-0.0729403 0.462982 -7.07977e-21)
(-0.0819371 0.471682 7.05033e-21)
(-0.0908842 0.480733 0)
(-0.0991551 0.489267 1.4608e-20)
(-0.105832 0.495815 -1.45643e-20)
(-0.109704 0.498112 0)
(-0.109358 0.492947 0)
(-0.103433 0.476192 -1.3957e-20)
(-0.0910518 0.443109 1.41373e-20)
(-0.0724249 0.389043 0)
(-0.0492661 0.310465 1.21713e-20)
(-0.025418 0.20584 -1.26723e-20)
(-0.00578833 0.0764736 9.7617e-21)
(0.00480094 0.0731107 0)
(0.0221161 0.198203 -1.10819e-20)
(0.0439729 0.301013 2.24942e-20)
(0.06593 0.379996 -1.14887e-20)
(0.084358 0.435991 1.28388e-20)
(0.0973835 0.47174 -2.58512e-20)
(0.104488 0.491218 1.30895e-20)
(0.106216 0.498725 0)
(0.103677 0.49819 0)
(0.0981337 0.492805 0)
(0.0907399 0.484922 0)
(0.0824152 0.476133 0)
(0.0738206 0.467428 0)
(0.0653872 0.459359 0)
(0.0573653 0.452189 -6.46748e-21)
(0.0498761 0.446 1.17158e-22)
(0.0429544 0.440771 6.38868e-21)
(0.0365813 0.436428 0)
(0.0307074 0.432878 0)
(0.0252681 0.430026 3.02284e-21)
(0.0201928 0.427784 -4.52476e-21)
(0.0154101 0.426079 1.4993e-21)
(0.0108509 0.424852 -7.39444e-22)
(0.00644863 0.424057 7.40104e-22)
(0.00213928 0.423667 0)
(-0.00213928 0.423667 0)
(-0.00644863 0.424057 7.40104e-22)
(-0.0108509 0.424852 -7.39444e-22)
(-0.0154101 0.426079 1.4993e-21)
(-0.0201928 0.427784 -4.52476e-21)
(-0.0252681 0.430026 3.02284e-21)
(-0.0307074 0.432878 0)
(-0.0365813 0.436428 0)
(-0.0429544 0.440771 6.38868e-21)
(-0.0498761 0.446 1.17158e-22)
(-0.0573653 0.452189 -6.46748e-21)
(-0.0653872 0.459359 0)
(-0.0738206 0.467428 0)
(-0.0824152 0.476133 0)
(-0.0907399 0.484922 0)
(-0.0981337 0.492805 0)
(-0.103677 0.49819 0)
(-0.106216 0.498725 0)
(-0.104488 0.491218 1.30895e-20)
(-0.0973835 0.47174 -2.58512e-20)
(-0.084358 0.435991 1.28388e-20)
(-0.06593 0.379996 -1.14887e-20)
(-0.0439729 0.301013 2.24942e-20)
(-0.0221161 0.198203 -1.10819e-20)
(-0.00480094 0.0731107 0)
(0.00389548 0.0700142 6.95707e-21)
(0.0191077 0.191038 9.63536e-21)