/*--------------------------------*- C++ -*----------------------------------*\
  =========                 |
  \\      /  F ield         | OpenFOAM: The Open Source CFD Toolbox
   \\    /   O peration     | Website:  https://openfoam.org
    \\  /    A nd           | Version:  6
     \\/     M anipulation  |
\*---------------------------------------------------------------------------*/
FoamFile
{
    version     2.0;
    format      ascii;
    class       volVectorField;
    location    "1";
    object      C;
}
// * * * * * * * * * * * * * * * * * * * * * * * * * * * * * * * * * * * * * //

dimensions      [0 1 0 0 0 0 0];

internalField   nonuniform List<vector> 
841
(
(0.0290005 0.0220837 0)
(0.0546957 0.0503096 3.58998e-19)
(0.0783294 0.0802564 -3.40138e-19)
(0.0998007 0.111787 -6.24217e-19)
(0.119171 0.144671 1.25303e-20)
(0.13649 0.178718 0)
(0.151979 0.213691 -1.24579e-20)
(0.165861 0.249397 0)
(0.17809 0.285769 0)
(0.188855 0.322651 0)
(0.198266 0.359933 0)
(0.20626 0.397564 0)
(0.212748 0.435494 5.09457e-19)
(0.21765 0.473667 0)
(0.220893 0.512016 0)
(0.222297 0.550474 0)
(0.221588 0.588944 -4.27017e-19)
(0.218291 0.627266 2.39885e-20)
(0.211915 0.665179 3.47299e-19)
(0.20209 0.70233 0)
(0.18884 0.738393 0)
(0.172772 0.773297 0)
(0.154547 0.807124 2.92706e-19)
(0.134626 0.839974 5.44397e-19)
(0.113477 0.87202 0)
(0.0915157 0.903463 2.57241e-19)
(0.0691349 0.934512 7.50051e-19)
(0.0467773 0.965439 0)
(0.0246973 0.996405 0)
(0.0606735 0.0376553 0)
(0.0852836 0.066254 -8.092e-19)
(0.107733 0.0964842 -4.96953e-19)
(0.127973 0.128207 -2.42582e-20)
(0.146114 0.161206 0)
(0.162251 0.195317 -2.34592e-19)
(0.176646 0.23033 -2.08494e-19)
(0.18956 0.266077 6.67058e-19)
(0.20099 0.3025 0)
(0.211128 0.339441 6.77623e-19)
(0.220062 0.37678 -4.20644e-19)
(0.227715 0.414461 -8.02052e-19)
(0.233981 0.452428 -3.78074e-19)
(0.238767 0.490628 -4.15769e-19)
(0.241988 0.528995 2.40909e-20)
(0.243456 0.567464 3.90723e-19)
(0.242894 0.605944 0)
(0.239831 0.644281 3.38225e-19)
(0.233778 0.682228 0)
(0.224364 0.719442 9.14274e-19)
(0.211602 0.755609 0)
(0.196067 0.79066 0)
(0.178407 0.824673 0)
(0.159111 0.857745 0)
(0.138685 0.890041 0)
(0.117596 0.921747 3.01538e-19)
(0.096295 0.953033 0)
(0.0752533 0.984103 4.8195e-19)
(0.0547092 1.01505 0)
(0.0938144 0.0495962 0)
(0.117441 0.0782687 0)
(0.138808 0.108484 0)
(0.157921 0.140099 2.42868e-20)
(0.174935 0.172916 -7.47081e-19)
(0.189994 0.206793 -1.11108e-18)
(0.203397 0.24155 3.76543e-19)
(0.215447 0.277041 -7.24322e-19)
(0.226183 0.313219 -3.71395e-19)
(0.235796 0.349923 1.08647e-18)
(0.244357 0.387024 2.41886e-20)
(0.251772 0.424458 -3.63372e-19)
(0.25792 0.462168 3.82255e-19)
(0.262692 0.500099 0)
(0.265993 0.538187 -6.93955e-19)
(0.267627 0.576372 0)
(0.267315 0.614565 0)
(0.264587 0.652621 3.54143e-19)
(0.25896 0.690304 0)
(0.25006 0.727283 -2.40671e-20)
(0.237888 0.763258 -3.27559e-19)
(0.222988 0.798159 0)
(0.205995 0.83206 -6.14105e-19)
(0.187426 0.865056 0)
(0.167826 0.897306 0)
(0.147713 0.928978 0)
(0.127596 0.960203 3.44925e-19)
(0.107976 0.991121 -9.13386e-19)
(0.0890729 1.02176 1.16981e-18)
(0.127961 0.0580367 1.15548e-18)
(0.150593 0.0865043 -7.46474e-19)
(0.170867 0.116425 -7.41764e-19)
(0.188841 0.147655 0)
(0.204717 0.180011 3.56995e-19)
(0.218685 0.213375 0)
(0.231085 0.247597 6.84671e-19)
(0.242259 0.282555 -3.54775e-19)
(0.252288 0.31821 3.78887e-19)
(0.261365 0.3544 -6.86844e-19)
(0.269539 0.390985 0)
(0.276705 0.427895 3.54543e-19)
(0.282722 0.46507 -3.52961e-19)
(0.287468 0.502454 7.26805e-19)
(0.290836 0.539986 6.74842e-19)
(0.292625 0.577608 3.47965e-19)
(0.29255 0.615237 6.9467e-19)
(0.290146 0.652735 0)
(0.284931 0.689875 0)
(0.276533 0.726343 -3.61964e-19)
(0.264937 0.761847 2.40868e-20)
(0.250659 0.79632 7.45269e-19)
(0.234321 0.829831 3.95297e-19)
(0.216466 0.862472 -8.05628e-19)
(0.197679 0.894395 8.11545e-19)
(0.17853 0.925752 4.03082e-19)
(0.159586 0.956636 -2.39337e-20)
(0.141376 0.987118 3.82819e-19)
(0.124105 1.01716 7.20028e-19)
(0.1627 0.0634284 3.49629e-19)
(0.184278 0.091583 3.60443e-19)
(0.203399 0.121102 0)
(0.220173 0.151839 -6.93409e-19)
(0.23485 0.183625 0)
(0.247668 0.216369 -1.03513e-18)
(0.259004 0.249947 0)
(0.26924 0.284263 -6.74345e-19)
(0.278501 0.319287 -3.50763e-19)
(0.28698 0.354854 0)
(0.294707 0.390815 0)
(0.301561 0.427093 -6.86573e-19)
(0.307386 0.463625 2.42051e-20)
(0.312046 0.500354 2.41887e-20)
(0.31542 0.537221 0)
(0.317302 0.574173 2.41606e-20)
(0.317403 0.611128 1.07863e-18)
(0.315261 0.64796 -3.6432e-19)
(0.310396 0.68445 3.73246e-19)
(0.302438 0.720298 -7.99216e-19)
(0.291357 0.755224 -4.0577e-19)
(0.277641 0.78916 8.44825e-19)
(0.261896 0.822172 -4.86821e-19)
(0.244694 0.85435 -2.61133e-19)
(0.226659 0.885837 0)
(0.208411 0.916768 4.51445e-19)
(0.190577 0.947198 6.49872e-19)
(0.173716 0.977132 -2.38847e-20)
(0.158015 1.00647 8.25359e-19)
(0.197748 0.0664547 3.44945e-19)
(0.218249 0.0943439 -3.48053e-19)
(0.236195 0.123508 0)
(0.251749 0.153799 0)
(0.265205 0.185064 0)
(0.276851 0.217234 0)
(0.287101 0.250216 -3.45924e-19)
(0.296379 0.283938 0)
(0.304849 0.318379 0)
(0.312708 0.35337 -1.05781e-18)
(0.319966 0.388754 7.08689e-19)
(0.326486 0.424447 -3.55702e-19)
(0.332098 0.460382 -3.32331e-19)
(0.336648 0.496503 -1.07127e-18)
(0.340007 0.532753 -3.33508e-19)
(0.34196 0.56908 0)
(0.342215 0.605411 0)
(0.340313 0.641623 0)
(0.335778 0.677511 0)
(0.328238 0.712786 0)
(0.317649 0.747181 -2.40623e-20)
(0.304472 0.780628 1.252e-18)
(0.289299 0.813188 8.38206e-19)
(0.272728 0.844948 -2.55914e-19)
(0.255423 0.876045 2.33009e-19)
(0.238054 0.906595 2.30294e-19)
(0.221309 0.936617 4.26043e-19)
(0.205772 0.966048 -4.3558e-19)
(0.191617 0.994725 -4.01598e-19)
(0.232942 0.067845 9.90402e-19)
(0.252399 0.0956651 0)
(0.269201 0.124672 6.53006e-19)
(0.283563 0.154712 -6.77914e-19)
(0.295829 0.185651 -3.40999e-19)
(0.306332 0.217445 0)
(0.315525 0.250028 6.68962e-19)
(0.323873 0.283351 -3.48926e-19)
(0.331582 0.317405 3.50434e-19)
(0.33885 0.352016 3.76965e-19)
(0.345668 0.387019 0)
(0.351884 0.422323 0)
(0.357311 0.457858 3.79158e-19)
(0.361781 0.493567 -2.41294e-20)
(0.365154 0.529396 3.29468e-19)
(0.367207 0.565296 0)
(0.367646 0.601197 0)
(0.366013 0.636987 -3.52057e-19)
(0.361836 0.672469 -2.4045e-20)
(0.354742 0.707368 0)
(0.344676 0.741428 3.67291e-19)
(0.332068 0.774582 0)
(0.317495 0.806887 3.7777e-19)
(0.301585 0.838425 7.34829e-19)
(0.285039 0.869326 0)
(0.268577 0.899691 0)
(0.252946 0.929498 0)
(0.23876 0.95862 0)
(0.226178 0.98683 -1.0585e-18)
(0.268187 0.0682094 -3.25524e-19)
(0.286625 0.0962845 2.42245e-20)
(0.302309 0.125457 -3.37037e-19)
(0.315507 0.155572 0)
(0.326609 0.186509 0)
(0.335994 0.21825 -3.46929e-19)
(0.344156 0.250756 -2.42582e-20)
(0.351598 0.284006 -6.84227e-19)
(0.35857 0.317996 2.42012e-20)
(0.365272 0.352551 0)
(0.371675 0.387498 3.61417e-19)
(0.377612 0.422737 -7.01188e-19)
(0.382879 0.458196 -2.41013e-20)
(0.387295 0.493818 0)
(0.390706 0.52955 -3.58941e-19)
(0.392886 0.565347 0)
(0.393533 0.601144 0)
(0.392194 0.636835 -3.47792e-19)
(0.3884 0.672236 -2.39947e-20)
(0.381778 0.707084 3.41897e-19)
(0.372258 0.741133 -3.40514e-19)
(0.360244 0.774318 0)
(0.346297 0.806692 0)
(0.331071 0.838331 -6.66597e-19)
(0.315309 0.86936 0)
(0.299778 0.899863 0)
(0.285286 0.929778 -9.87479e-19)
(0.272477 0.958914 -2.38748e-20)
(0.261492 0.986978 0)
(0.303411 0.0681139 6.36184e-19)
(0.320812 0.0967208 -6.38479e-19)
(0.335358 0.126336 -3.09988e-19)
(0.347373 0.156802 2.42452e-20)
(0.35729 0.188016 0)
(0.36554 0.219981 -3.48551e-19)
(0.372651 0.252689 -3.78078e-19)
(0.37917 0.286142 3.5768e-19)
(0.385387 0.320346 0)
(0.391504 0.355124 3.40918e-19)
(0.397473 0.390291 0)
(0.403112 0.425743 3.94411e-19)
(0.408201 0.461404 2.40843e-20)
(0.412544 0.497216 7.15649e-19)
(0.415976 0.533129 0)
(0.418262 0.5691 0)
(0.4191 0.60507 0)
(0.418037 0.64094 7.04852e-19)
(0.414607 0.676537 6.91996e-19)
(0.408439 0.71161 0)
(0.399448 0.745925 6.45984e-19)
(0.388009 0.77942 6.35632e-19)
(0.37467 0.812139 0)
(0.36011 0.844158 6.1684e-19)
(0.345113 0.875595 0)
(0.330496 0.906514 0)
(0.317127 0.936818 1.19765e-18)
(0.305676 0.966246 0)
(0.296273 0.994445 0)
(0.338614 0.0680843 9.14361e-19)
(0.354956 0.0973146 -6.53024e-19)
(0.368345 0.127465 0)
(0.379155 0.158374 -2.42423e-20)
(0.387869 0.189955 0)
(0.394962 0.222237 0)
(0.401003 0.255239 2.42357e-20)
(0.406579 0.288987 -3.78787e-19)
(0.412021 0.323498 3.3354e-19)
(0.417534 0.35859 0)
(0.42305 0.394071 -3.65349e-19)
(0.428372 0.429828 0)
(0.433264 0.465782 0)
(0.437513 0.501876 3.67868e-19)
(0.440946 0.538061 0)
(0.44332 0.574298 0)
(0.444328 0.610532 -7.14097e-19)
(0.443522 0.646672 3.26849e-19)
(0.440437 0.682555 3.44276e-19)
(0.434703 0.717945 3.38117e-19)
(0.426222 0.752618 3.32595e-19)
(0.415339 0.786513 -3.51029e-19)
(0.402588 0.81967 6.91889e-19)
(0.388677 0.852162 0)
(0.374425 0.884098 0)
(0.360704 0.915529 0)
(0.348438 0.946315 -1.19383e-18)
(0.338328 0.976132 0)
(0.330487 1.00456 0)
(0.373815 0.0684539 0)
(0.389113 0.098219 3.22011e-19)
(0.401359 0.128815 -6.2611e-19)
(0.410981 0.160079 0)
(0.418507 0.19194 -9.8199e-19)
(0.424461 0.22445 0)
(0.429448 0.257658 0)
(0.434097 0.291615 -3.47338e-19)
(0.438782 0.326346 -3.49595e-19)
(0.443708 0.361665 -2.417e-20)
(0.448787 0.397371 3.79664e-19)
(0.453808 0.433345 0)
(0.458519 0.469504 -3.57674e-19)
(0.462692 0.505792 3.33006e-19)
(0.466142 0.542161 0)
(0.46862 0.578575 0)
(0.469816 0.614985 0)
(0.469282 0.651306 -3.43598e-19)
(0.46656 0.687387 0)
(0.461277 0.723004 0)
(0.453323 0.757947 3.56236e-19)
(0.443013 0.792153 3.28818e-19)
(0.430867 0.825661 0)
(0.41762 0.858537 0)
(0.404131 0.890887 0)
(0.391323 0.922741 3.14209e-19)
(0.380177 0.953925 0)
(0.371427 0.984045 0)
(0.365165 1.01262 3.26406e-19)
(0.409014 0.0693089 -2.95453e-19)
(0.423294 0.099396 -3.43939e-19)
(0.434423 0.130226 -2.98343e-19)
(0.442882 0.161632 2.42856e-20)
(0.449246 0.19356 0)
(0.454085 0.226087 -9.87516e-19)
(0.458045 0.25929 0)
(0.461793 0.293243 1.03139e-18)
(0.465747 0.327981 -3.45273e-19)
(0.470111 0.363315 0)
(0.47478 0.399035 3.4967e-19)
(0.479527 0.435015 3.02715e-19)
(0.484082 0.471168 0)
(0.488205 0.507437 0)
(0.491698 0.543779 1.02377e-18)
(0.494305 0.580158 3.47213e-19)
(0.495714 0.616532 1.01012e-18)
(0.495479 0.652822 3.42362e-19)
(0.493145 0.688888 0)
(0.488339 0.724521 3.40681e-19)
(0.480937 0.759521 -3.6539e-19)
(0.471226 0.793827 2.39742e-20)
(0.459711 0.827472 0)
(0.447154 0.860522 9.91022e-19)
(0.434454 0.893073 -2.39198e-20)
(0.422584 0.92514 0)
(0.412587 0.956509 0)
(0.405222 0.986722 2.38732e-20)
(0.400568 1.01523 3.58127e-19)
(0.4442 0.0706748 2.84235e-19)
(0.457462 0.100862 0)
(0.467476 0.131702 6.22529e-19)
(0.474773 0.163028 -6.33418e-19)
(0.479976 0.194801 6.45294e-19)
(0.483702 0.227123 -3.39701e-19)
(0.486635 0.260097 0)
(0.489484 0.293824 0)
(0.492706 0.328347 2.42632e-20)
(0.49651 0.363475 0)
(0.500769 0.398986 2.42041e-20)
(0.505241 0.434748 0)
(0.509642 0.470673 0)
(0.513715 0.506702 -3.53085e-19)
(0.517252 0.542793 0)
(0.51999 0.578916 2.41047e-20)
(0.521612 0.615031 3.25408e-19)
(0.521676 0.651069 -1.02226e-18)
(0.519731 0.686898 0)
(0.515403 0.722325 0)
(0.508554 0.757159 -7.11807e-19)
(0.499441 0.791343 -6.93318e-19)
(0.488558 0.824903 -3.60574e-19)
(0.476691 0.857903 0)
(0.464781 0.890432 0)
(0.45385 0.922489 -6.70628e-19)
(0.445001 0.953819 3.6521e-19)
(0.439023 0.983901 9.95433e-19)
(0.435978 1.01212 0)
(0.479354 0.0725844 -6.0935e-19)
(0.491583 0.102713 0)
(0.500464 0.133408 -3.01932e-19)
(0.506582 0.164495 0)
(0.510606 0.195955 6.78248e-19)
(0.513203 0.227913 -1.00967e-18)
(0.515091 0.2605 -2.43498e-20)
(0.517022 0.293844 -3.5187e-19)
(0.519497 0.327994 0)
(0.522722 0.362756 -3.55417e-19)
(0.526554 0.3979 0)
(0.530735 0.433288 3.5864e-19)
(0.534964 0.468826 7.42667e-19)
(0.53897 0.504457 1.05353e-18)
(0.542533 0.54014 4.82805e-20)
(0.545384 0.575848 2.41241e-20)
(0.547203 0.611547 -7.1405e-19)
(0.547549 0.647174 -3.33135e-19)
(0.545975 0.682609 -7.42407e-19)
(0.542107 0.717671 0)
(0.535793 0.752183 7.14324e-19)
(0.527262 0.786085 -2.40229e-20)
(0.516993 0.819404 0)
(0.505799 0.852195 7.76678e-19)
(0.494661 0.884545 -1.08895e-18)
(0.484652 0.916432 0)
(0.476933 0.947565 7.06576e-19)
(0.472324 0.977355 -2.38674e-20)
(0.470869 1.00513 -6.83747e-19)
(0.514468 0.0750698 -1.20573e-20)
(0.52565 0.105051 6.27312e-19)
(0.533385 0.13551 -6.35494e-19)
(0.538311 0.16627 -3.36766e-19)
(0.541143 0.197327 -3.44125e-19)
(0.542595 0.228831 -2.43716e-20)
(0.543426 0.260942 0)
(0.544426 0.293811 0)
(0.546138 0.327498 0)
(0.548771 0.361805 1.0604e-18)
(0.552161 0.396493 -3.63493e-19)
(0.556037 0.431415 -3.89204e-19)
(0.560081 0.466476 0)
(0.564006 0.501619 0)
(0.567582 0.536805 -2.41498e-20)
(0.570532 0.572008 0)
(0.572533 0.607201 3.63535e-19)
(0.573148 0.642327 -3.63792e-19)
(0.571931 0.677279 3.65842e-19)
(0.568509 0.711888 2.4061e-20)
(0.562717 0.745986 2.40437e-20)
(0.554754 0.779519 0)
(0.545085 0.812504 0)
(0.534551 0.844998 -2.39947e-20)
(0.524171 0.877077 0)
(0.515069 0.908705 3.67433e-19)
(0.508467 0.939551 0)
(0.50521 0.968959 -3.5371e-19)
(0.505332 0.996192 2.38713e-20)
(0.549535 0.0781526 9.39728e-19)
(0.559668 0.107951 6.33998e-19)
(0.566255 0.138136 -6.42975e-19)
(0.569986 0.168533 0)
(0.571625 0.199151 0)
(0.57193 0.230165 -3.555e-19)
(0.571701 0.261763 0)
(0.571767 0.294121 -3.87793e-19)
(0.572713 0.327308 -2.43038e-20)
(0.574752 0.361123 -3.67366e-19)
(0.577699 0.395317 -2.42408e-20)
(0.581267 0.429738 3.71034e-19)
(0.585122 0.464286 7.43426e-19)
(0.588964 0.498904 -2.4171e-20)
(0.59255 0.533555 2.41523e-20)
(0.595598 0.568218 0)
(0.597779 0.602868 3.6868e-19)
(0.598659 0.637458 -3.68437e-19)
(0.597797 0.671889 -7.15609e-19)
(0.594819 0.706007 3.735e-19)
(0.589547 0.739657 -3.54677e-19)
(0.582149 0.772782 4.07153e-19)
(0.573077 0.805399 3.6235e-19)
(0.5632 0.837559 0)
(0.553576 0.869331 0)
(0.545379 0.900662 0)
(0.53989 0.931184 0)
(0.537984 0.960174 3.54436e-19)
(0.539678 0.98683 0)
(0.584551 0.0818443 -3.20387e-19)
(0.593643 0.111461 6.158e-19)
(0.59909 0.141378 0)
(0.601635 0.171413 3.44815e-19)
(0.602087 0.201594 0)
(0.601254 0.23212 0)
(0.599971 0.263207 0)
(0.599111 0.295057 0)
(0.599301 0.327746 0)
(0.600753 0.36107 0)
(0.603263 0.394773 -1.07535e-18)
(0.606532 0.428694 3.76352e-19)
(0.610207 0.462731 2.41863e-20)
(0.613973 0.496827 -2.41666e-20)
(0.617578 0.530946 -3.51636e-19)
(0.62073 0.56507 0)
(0.623099 0.599179 -2.41156e-20)
(0.624253 0.633235 3.71155e-19)
(0.623754 0.667148 -2.40802e-20)
(0.621228 0.700778 2.40606e-20)
(0.616482 0.733981 0)
(0.609659 0.766703 7.59054e-19)
(0.601192 0.798953 3.81361e-19)
(0.59198 0.83078 0)
(0.583119 0.862248 4.19581e-19)
(0.575835 0.893285 3.61556e-19)
(0.571466 0.923484 -3.77618e-19)
(0.570918 0.952058 0)
(0.574191 0.97814 0)
(0.619516 0.0861204 -1.20352e-20)
(0.627583 0.115601 -1.00275e-18)
(0.631905 0.145292 3.63568e-19)
(0.633279 0.17501 -2.43244e-20)
(0.632561 0.204799 -3.55859e-19)
(0.630606 0.234881 -3.62722e-19)
(0.628286 0.265501 -3.68189e-19)
(0.626516 0.296886 -7.66252e-19)
(0.625965 0.32912 3.72825e-19)
(0.626846 0.361998 4.0029e-19)
(0.628936 0.395253 2.42216e-20)
(0.631921 0.428718 7.61658e-19)
(0.635432 0.462288 0)
(0.639138 0.495905 0)
(0.642777 0.529535 -2.41368e-20)
(0.64605 0.563164 -2.4121e-20)
(0.648623 0.596778 0)
(0.650067 0.630343 0)
(0.649946 0.663782 -3.70767e-19)
(0.647888 0.696969 -1.0874e-18)
(0.643686 0.729769 0)
(0.637451 0.762131 -3.71701e-19)
(0.629607 0.794059 3.71497e-19)
(0.621075 0.825597 -7.35636e-19)
(0.612993 0.856804 -3.61166e-19)
(0.606637 0.887591 0)
(0.603404 0.917512 -6.72662e-19)
(0.604229 0.945713 0)
(0.609097 0.971264 0)
(0.65445 0.0908089 0)
(0.661509 0.120254 -6.44184e-19)
(0.664725 0.149819 3.63927e-19)
(0.664946 0.179321 0)
(0.663076 0.208817 -3.5666e-19)
(0.660015 0.238555 -2.43156e-20)
(0.656676 0.268808 2.43076e-20)
(0.654014 0.299827 -3.71926e-19)
(0.652738 0.331706 3.74388e-19)
(0.653066 0.364237 0)
(0.654754 0.397143 -3.81905e-19)
(0.657472 0.430252 0)
(0.660836 0.463454 3.85956e-19)
(0.664501 0.496691 7.96043e-19)
(0.668191 0.529933 2.41174e-20)
(0.671603 0.563167 -3.81812e-19)
(0.674397 0.596384 0)
(0.676148 0.629558 -3.73942e-19)
(0.676424 0.662624 3.69963e-19)
(0.674851 0.695467 0)
(0.671209 0.727965 2.40173e-20)
(0.665582 0.760066 0)
(0.658376 0.791771 3.83065e-19)
(0.650543 0.823121 0)
(0.643257 0.854167 0)
(0.637846 0.884803 -2.39255e-20)
(0.635765 0.914545 -6.88637e-19)
(0.63798 0.942473 2.38906e-20)
(0.644459 0.967592 7.85895e-19)
(0.689404 0.0954862 -1.19712e-20)
(0.695461 0.125067 0)
(0.697574 0.15468 2.42302e-20)
(0.696648 0.184136 2.4252e-20)
(0.693629 0.213511 3.55522e-19)
(0.689467 0.243076 3.62497e-19)
(0.685114 0.273134 0)
(0.681564 0.303958 0)
(0.679569 0.335653 2.42126e-20)
(0.679349 0.368006 0)
(0.680638 0.400735 3.61106e-19)
(0.683094 0.433658 1.14464e-18)
(0.686316 0.466663 0)
(0.689943 0.499692 -8.1001e-19)
(0.693689 0.532716 0)
(0.697244 0.565726 -3.89311e-19)
(0.700265 0.598718 7.69854e-19)
(0.702328 0.631673 0)
(0.703004 0.664537 3.72812e-19)
(0.701921 0.697207 0)
(0.698844 0.729575 -3.60423e-19)
(0.693828 0.761587 3.54478e-19)
(0.687266 0.793242 -7.22411e-19)
(0.680135 0.824574 0)
(0.673651 0.85563 0)
(0.669188 0.886286 -9.94585e-19)
(0.668264 0.916019 6.71219e-19)
(0.671872 0.943844 7.18517e-19)
(0.679964 0.9687 3.88914e-19)
(0.724431 0.0995377 0)
(0.729456 0.129497 -3.2508e-19)
(0.73044 0.159399 0)
(0.728335 0.189053 -1.00698e-18)
(0.724139 0.218549 0)
(0.718848 0.248184 0)
(0.713451 0.278287 -7.09453e-19)
(0.708984 0.309157 -2.41932e-20)
(0.70624 0.340909 3.7632e-19)
(0.705441 0.373327 2.41484e-20)
(0.706304 0.406119 0)
(0.708468 0.439097 -3.98156e-19)
(0.711518 0.472147 -2.40927e-20)
(0.715079 0.50521 0)
(0.718851 0.538259 0)
(0.72252 0.571287 -4.04876e-19)
(0.725737 0.604296 1.22537e-18)
(0.728082 0.637274 -3.69485e-19)
(0.72913 0.670177 0)
(0.728507 0.702918 -2.39816e-20)
(0.725965 0.735397 3.65288e-19)
(0.721531 0.767563 3.79737e-19)
(0.715584 0.799409 3.71837e-19)
(0.709125 0.830965 0)
(0.703412 0.862272 0)
(0.699869 0.893189 -6.691e-19)
(0.700072 0.923155 7.07648e-19)
(0.705043 0.951116 0)
(0.714717 0.975949 0)
(0.759537 0.102335 0)
(0.763472 0.132921 -2.41483e-20)
(0.763264 0.163361 6.558e-19)
(0.759923 0.193461 1.02019e-18)
(0.754489 0.223327 -3.50963e-19)
(0.748009 0.25328 0)
(0.741509 0.283678 0)
(0.736064 0.314844 2.41615e-20)
(0.732513 0.346902 0)
(0.731076 0.379634 3.6204e-19)
(0.731452 0.412739 0)
(0.733265 0.446023 2.40884e-20)
(0.736084 0.479367 0)
(0.739518 0.512713 4.18067e-19)
(0.743257 0.546035 -1.21447e-18)
(0.74698 0.57933 0)
(0.750334 0.612605 0)
(0.752902 0.645856 2.39975e-20)
(0.754261 0.679049 -7.7653e-19)
(0.754038 0.712109 -4.36442e-19)
(0.751972 0.744948 3.75909e-19)
(0.748061 0.777517 -3.63793e-19)
(0.742667 0.809802 0)
(0.736822 0.841832 3.49657e-19)
(0.73182 0.87364 1.37385e-18)
(0.729138 0.905067 -6.97877e-19)
(0.73041 0.935514 3.92073e-19)
(0.736686 0.963862 -6.7915e-19)
(0.747884 0.98892 0)
(0.79468 0.103111 5.72338e-19)
(0.797475 0.134504 0)
(0.79603 0.165661 0)
(0.791405 0.196387 -2.41659e-20)
(0.784688 0.226803 3.49481e-19)
(0.776972 0.257256 -2.4171e-20)
(0.769322 0.288129 -2.41634e-20)
(0.762856 0.319773 0)
(0.758451 0.352319 0)
(0.75633 0.385547 -3.58543e-19)
(0.756173 0.419147 0)
(0.75759 0.452917 -8.27416e-19)
(0.760131 0.486737 0)
(0.763392 0.520546 0)
(0.767052 0.554323 0)
(0.770783 0.588066 4.20959e-19)
(0.774228 0.621788 0)
(0.776972 0.655492 0)
(0.778597 0.689154 -4.27071e-19)
(0.778728 0.722714 3.91496e-19)
(0.777091 0.756094 7.57083e-19)
(0.773656 0.789245 -3.65849e-19)
(0.76877 0.822151 0)
(0.763492 0.854836 3.51277e-19)
(0.759157 0.887325 2.38833e-20)
(0.75729 0.919444 -2.38737e-20)
(0.759586 0.950555 -4.0228e-19)
(0.767124 0.979472 -9.69293e-19)
(0.779806 1.00494 0)
(0.829708 0.101007 -8.06606e-19)
(0.831365 0.133311 6.55226e-19)
(0.828683 0.165292 3.44599e-19)
(0.822775 0.19675 -1.01374e-18)
(0.814776 0.227823 0)
(0.805826 0.258881 7.23639e-19)
(0.797028 0.290337 -3.42799e-19)
(0.789541 0.322566 0)
(0.784284 0.355708 3.70929e-19)
(0.781482 0.389539 0)
(0.780793 0.423742 2.40824e-20)
(0.781815 0.458105 0)
(0.78408 0.492507 -7.95249e-19)
(0.78717 0.526887 7.81972e-19)
(0.790753 0.561224 2.40166e-20)
(0.794492 0.595523 -3.83449e-19)
(0.798029 0.629797 0)
(0.800952 0.66406 4.79311e-20)
(0.802844 0.698298 7.61454e-19)
(0.803331 0.732464 0)
(0.802125 0.766491 0)
(0.799166 0.800332 3.35329e-19)
(0.79479 0.833965 0)
(0.790081 0.86741 0)
(0.786414 0.900688 -1.35319e-18)
(0.785365 0.933606 2.38549e-20)
(0.788687 0.965488 3.66329e-19)
(0.797491 0.995083 -2.38545e-20)
(0.811664 1.02107 0)
(0.864288 0.0952984 5.4415e-19)
(0.864864 0.128541 0)
(0.861001 0.161371 0)
(0.853868 0.193586 0)
(0.844643 0.225343 2.41939e-20)
(0.834516 0.257033 -2.41905e-20)
(0.824628 0.2891 0)
(0.816177 0.321941 0)
(0.810126 0.355707 0)
(0.806701 0.39017 0)
(0.805539 0.425002 -3.73632e-19)
(0.806223 0.459987 0)
(0.80827 0.494998 -7.60358e-19)
(0.811246 0.529975 -4.06712e-19)
(0.81481 0.5649 4.07984e-19)
(0.818615 0.59978 -3.83716e-19)
(0.822302 0.634634 0)
(0.82546 0.669482 2.39502e-20)
(0.827676 0.704321 2.39279e-20)
(0.828577 0.739119 0)
(0.82786 0.773819 2.38852e-20)
(0.825436 0.808376 3.45252e-19)
(0.821627 0.842762 -3.36743e-19)
(0.817545 0.876995 6.61616e-19)
(0.814603 0.911089 -6.55006e-19)
(0.81443 0.944833 -6.42033e-19)
(0.818837 0.977512 0)
(0.828966 1.00781 0)
(0.844689 1.03435 2.66654e-19)
(0.897908 0.0854328 2.74325e-19)
(0.897495 0.119522 0)
(0.892547 0.15311 0)
(0.884282 0.185993 -1.08588e-18)
(0.873929 0.218341 -7.8503e-19)
(0.86272 0.250574 0)
(0.851837 0.283162 2.42328e-20)
(0.842519 0.316527 4.2051e-19)
(0.83577 0.350829 0)
(0.831816 0.385834 1.10617e-18)
(0.830277 0.421207 0)
(0.830719 0.456723 -3.70178e-19)
(0.832644 0.492254 0)
(0.835602 0.527739 -2.40195e-20)
(0.839241 0.563162 0)
(0.843209 0.598532 3.63827e-19)
(0.847141 0.633875 0)
(0.85063 0.669218 7.38726e-19)
(0.853266 0.704569 7.0615e-19)
(0.854676 0.739907 0)
(0.854544 0.77519 2.38691e-20)
(0.85275 0.810372 3.12834e-19)
(0.849603 0.845422 -6.60074e-19)
(0.846243 0.880352 6.67672e-19)
(0.844123 0.915171 0)
(0.844921 0.94965 0)
(0.85051 0.983038 -9.20439e-19)
(0.862058 1.01395 3.15163e-19)
(0.879427 1.04095 -3.87433e-19)
(0.929892 0.0710871 0)
(0.928556 0.105811 1.00696e-18)
(0.922588 0.139945 0)
(0.913257 0.173282 1.27384e-18)
(0.901839 0.206011 0)
(0.889615 0.238574 5.06887e-19)
(0.877801 0.271472 0)
(0.86768 0.305152 -6.76292e-19)
(0.860297 0.339779 0)
(0.85588 0.375117 0)
(0.854029 0.41082 -4.22883e-19)
(0.854295 0.446658 -2.4101e-20)
(0.856163 0.482498 3.82537e-19)
(0.859168 0.51828 -1.13142e-18)
(0.862947 0.553989 -3.72586e-19)
(0.867142 0.58964 2.39937e-20)
(0.871385 0.625261 3.8921e-19)
(0.875269 0.660887 3.62541e-19)
(0.878391 0.696537 -3.36487e-19)
(0.880375 0.732206 -3.58861e-19)
(0.880892 0.76786 -3.34017e-19)
(0.879793 0.803455 -1.40183e-18)
(0.877374 0.838957 0)
(0.874801 0.874374 -6.79798e-19)
(0.873567 0.909707 6.71831e-19)
(0.875402 0.94471 0)
(0.882235 0.978592 -8.33691e-19)
(0.895267 1.00991 0)
(0.914343 1.03715 0)
(0.959601 0.052386 6.09565e-19)
(0.957325 0.0875127 0)
(0.950319 0.121961 0)
(0.939905 0.155521 0)
(0.927406 0.188397 -6.27482e-19)
(0.914148 0.221058 0)
(0.901385 0.254034 0)
(0.89044 0.287797 -3.33498e-19)
(0.882404 0.322521 0)
(0.877505 0.357961 -2.34473e-19)
(0.875322 0.393763 4.64884e-19)
(0.875392 0.42969 4.44758e-19)
(0.877184 0.465608 -2.41178e-20)
(0.880218 0.501455 2.40807e-20)
(0.88412 0.537221 -4.12792e-19)
(0.888523 0.57292 0)
(0.893057 0.608588 0)
(0.897319 0.644266 0)
(0.900907 0.679985 0)
(0.903447 0.715751 0)
(0.904594 0.751545 0)
(0.904171 0.787324 -2.38223e-20)
(0.90246 0.823046 1.21466e-18)
(0.900656 0.858718 4.75669e-20)
(0.900289 0.894332 -3.40681e-19)
(0.90314 0.929626 -4.75133e-20)
(0.911198 0.963771 -8.68811e-19)
(0.925691 0.995255 0)
(0.946451 1.02251 0)
(0.986649 0.0299208 0)
(0.983375 0.0653141 0)
(0.975273 0.0999392 -2.9483e-19)
(0.96372 0.133582 0)
(0.950083 0.166464 -2.66514e-19)
(0.935733 0.199082 7.82426e-19)
(0.921962 0.231999 5.29115e-19)
(0.910132 0.265714 -2.48384e-20)
(0.901381 0.3004 -1.12912e-18)
(0.895939 0.335806 3.49691e-19)
(0.893365 0.37157 -8.41896e-19)
(0.893181 0.40745 0)
(0.894838 0.443308 0)
(0.897841 0.479084 -4.63517e-19)
(0.901806 0.514767 -2.25084e-19)
(0.906358 0.550378 0)
(0.911125 0.585956 -2.89847e-19)
(0.915705 0.621549 0)
(0.919701 0.6572 2.42598e-19)
(0.922737 0.692928 0)
(0.924455 0.728725 0)
(0.92465 0.76455 -4.68133e-19)
(0.923589 0.800356 -5.17584e-19)
(0.922493 0.836145 7.04946e-19)
(0.922934 0.871904 -8.08301e-19)
(0.926741 0.907353 -4.74422e-20)
(0.935962 0.941623 0)
(0.951857 0.973139 0)
(0.97424 1.00027 0)
)
;

boundaryField
{
    low
    {
        type            calculated;
        value           nonuniform List<vector> 
29
(
(0.0156789 0.00853065 0)
(0.0478616 0.0238602 0)
(0.0814826 0.0357189 0)
(0.116112 0.0442324 0)
(0.151353 0.0497578 0)
(0.186899 0.0528977 0)
(0.222562 0.0543107 0)
(0.258258 0.0545449 0)
(0.293954 0.0541745 0)
(0.329651 0.0538126 0)
(0.365348 0.0538843 0)
(0.401039 0.0545462 0)
(0.436713 0.0558358 0)
(0.472359 0.0577514 0)
(0.507966 0.0602891 0)
(0.543524 0.0634428 0)
(0.579023 0.0672042 0)
(0.614458 0.0715278 0)
(0.649848 0.0762143 0)
(0.685249 0.0808061 0)
(0.720735 0.0846559 0)
(0.756339 0.0871294 0)
(0.792013 0.087491 0)
(0.82758 0.0849155 0)
(0.86268 0.0787171 0)
(0.896781 0.0683996 0)
(0.929224 0.0537051 0)
(0.959397 0.0347749 0)
(0.986926 0.012152 0)
)
;
    }
    up
    {
        type            calculated;
        value           nonuniform List<vector> 
29
(
(0.0138611 1.01186 0)
(0.0446949 1.03042 0)
(0.0799182 1.03689 0)
(0.115795 1.03194 0)
(0.150521 1.02084 0)
(0.184935 1.00873 0)
(0.220331 1.00056 0)
(0.256497 1.0006 0)
(0.292117 1.0081 0)
(0.327158 1.01828 0)
(0.362668 1.02636 0)
(0.398911 1.02889 0)
(0.435162 1.02558 0)
(0.470889 1.01832 0)
(0.506182 1.00907 0)
(0.541361 0.999371 0)
(0.576712 0.99035 0)
(0.612465 0.983165 0)
(0.648686 0.979236 0)
(0.685053 0.980176 0)
(0.720653 0.98738 0)
(0.754631 1.00043 0)
(0.787329 1.01661 0)
(0.819952 1.03294 0)
(0.853765 1.04644 0)
(0.889336 1.05323 0)
(0.925126 1.04953 0)
(0.958113 1.03488 0)
(0.98676 1.01255 0)
)
;
    }
    left
    {
        type            calculated;
        value           nonuniform List<vector> 
29
(
(0.0136156 0.013551 0)
(0.0398949 0.0415466 0)
(0.0641589 0.0713028 0)
(0.0862818 0.102686 0)
(0.106301 0.135455 0)
(0.124243 0.169407 0)
(0.140313 0.204293 0)
(0.15471 0.239901 0)
(0.167371 0.276162 0)
(0.178486 0.312932 0)
(0.188173 0.350102 0)
(0.196377 0.387628 0)
(0.203015 0.42546 0)
(0.208018 0.463544 0)
(0.211315 0.501811 0)
(0.21273 0.540192 0)
(0.211991 0.578586 0)
(0.208623 0.616831 0)
(0.202134 0.65466 0)
(0.192152 0.691712 0)
(0.178706 0.727659 0)
(0.162416 0.762429 0)
(0.143952 0.796102 0)
(0.123767 0.828781 0)
(0.102307 0.860641 0)
(0.0799646 0.891894 0)
(0.0571022 0.922769 0)
(0.0341451 0.953576 0)
(0.0113526 0.984504 0)
)
;
    }
    right
    {
        type            calculated;
        value           nonuniform List<vector> 
29
(
(0.99952 0.0179133 0)
(0.995731 0.0534381 0)
(0.987062 0.0881492 0)
(0.974916 0.121833 0)
(0.960685 0.154718 0)
(0.945769 0.187306 0)
(0.931482 0.220167 0)
(0.919207 0.253808 0)
(0.910093 0.288419 0)
(0.904366 0.323761 0)
(0.90158 0.359466 0)
(0.901249 0.395287 0)
(0.902818 0.431083 0)
(0.905786 0.466794 0)
(0.909761 0.50241 0)
(0.914369 0.537951 0)
(0.919232 0.573459 0)
(0.923952 0.608986 0)
(0.928131 0.644579 0)
(0.931396 0.680265 0)
(0.933382 0.716042 0)
(0.933871 0.75187 0)
(0.933118 0.787698 0)
(0.932356 0.823527 0)
(0.933175 0.85934 0)
(0.937428 0.894849 0)
(0.947196 0.929171 0)
(0.963753 0.960696 0)
(0.986914 0.987758 0)
)
;
    }
    frontAndBackPlanes
    {
        type            empty;
    }
}


// ************************************************************************* //
