/*--------------------------------*- C++ -*----------------------------------*\
  =========                 |
  \\      /  F ield         | OpenFOAM: The Open Source CFD Toolbox
   \\    /   O peration     | Website:  https://openfoam.org
    \\  /    A nd           | Version:  6
     \\/     M anipulation  |
\*---------------------------------------------------------------------------*/
FoamFile
{
    version     2.0;
    format      ascii;
    class       volScalarField;
    location    "1";
    object      f;
}
// * * * * * * * * * * * * * * * * * * * * * * * * * * * * * * * * * * * * * //

dimensions      [0 0 0 1 0 0 0];

internalField   nonuniform List<scalar> 
841
(
1.612217873567785287e-01
2.205308498461721611e-01
2.881330704599960324e-01
3.633755779181473966e-01
4.449427394847538797e-01
5.309816725494926892e-01
6.188513778213281524e-01
7.052880696635401847e-01
7.867004199383814678e-01
8.587242155359799956e-01
9.167412240669121637e-01
9.561059713799086035e-01
9.721967684446867208e-01
9.606529130134447980e-01
9.176967792593281326e-01
8.404207023239280705e-01
7.270702191515552304e-01
5.773097827852493591e-01
3.928451501872484153e-01
1.781346784137096406e-01
-5.928668098778743650e-02
-3.097790005146666137e-01
-5.629057448722576407e-01
-8.082975432884815792e-01
-1.036517266213017319e+00
-1.239626031502562231e+00
-1.411495866091129425e+00
-1.548254910076755309e+00
-1.647736661092437105e+00
1.986089925970493386e-01
2.607280093479526495e-01
3.301533173108417984e-01
4.061242200301581895e-01
4.872542803516929366e-01
5.716845695543670836e-01
6.567377588102002450e-01
7.391059146975348382e-01
8.151895244154367948e-01
8.805656905381727961e-01
9.306519107557281734e-01
9.609957620154674363e-01
9.672852276552268425e-01
9.455650362185941127e-01
8.925301325937171626e-01
8.058072754044572905e-01
6.841733528075674142e-01
5.277820652233036203e-01
3.386199498454813828e-01
1.211600846567079115e-01
-1.174014515773987993e-01
-3.679691837569465385e-01
-6.205725232815756387e-01
-8.651431967179800120e-01
-1.092406769363760244e+00
-1.294485435296362397e+00
-1.465236643223794655e+00
-1.600816631745068941e+00
-1.699369523132997939e+00
2.284950581307377548e-01
2.906068767399799246e-01
3.589393120518306612e-01
4.327829522161724674e-01
5.108662447533011131e-01
5.914946724751891649e-01
6.721336156703437981e-01
7.495835683841635122e-01
8.204165482130599818e-01
8.803238434305610260e-01
9.249298745296626878e-01
9.501207873008060689e-01
9.519859011217967071e-01
9.269754973606151305e-01
8.721499483925819751e-01
7.854499640383436621e-01
6.658602173113965517e-01
5.135737399791120428e-01
3.303159853972879034e-01
1.199181129376323124e-01
-1.114468073601587866e-01
-3.557944177468332358e-01
-6.040440723609064033e-01
-8.466605510456225447e-01
-1.074555958403301315e+00
-1.279710544165676867e+00
-1.455608816016205065e+00
-1.597989637195790902e+00
-1.704826466512766148e+00
2.471914675427072106e-01
3.063526092592552819e-01
3.707372336736535212e-01
4.398528034545937104e-01
5.126816633332078599e-01
5.878364098946785576e-01
6.630466881118732836e-01
7.353361538685634358e-01
8.015510488610865236e-01
8.576127814598769605e-01
8.994607834678590708e-01
9.233893000911614912e-01
9.259151565501149150e-01
9.038457342710791709e-01
8.544785071911376040e-01
7.758734781997598251e-01
6.669466684596712103e-01
5.276127855893537610e-01
3.589677599202892866e-01
1.637679786307749130e-01
-5.323434560923882147e-02
-2.855873039949158310e-01
-5.254317441922599086e-01
-7.639865695335332774e-01
-9.924249504757765017e-01
-1.202519716969426167e+00
-1.387148143085303875e+00
-1.541267353316123856e+00
-1.662302721872264577e+00
2.522491821839871751e-01
3.061030245284194207e-01
3.644668806259453997e-01
4.271575750970225682e-01
4.934783377183488695e-01
5.623956698406223920e-01
6.319195353733185749e-01
6.993092610299764811e-01
7.616838153601376282e-01
8.152113018392638244e-01
8.561671776794074207e-01
8.812559547312718289e-01
8.873936619274906956e-01
8.716980991885646679e-01
8.316376079253664511e-01
7.652966437912208653e-01
6.714374117995404179e-01
5.495925901357667787e-01
4.001438559324880795e-01
2.247055099120469357e-01
2.649744519959118874e-02
-1.896740360679680382e-01
-4.173616005497237658e-01
-6.487133065701065071e-01
-8.752893017308073231e-01
-1.088715391694054846e+00
-1.281213543622511608e+00
-1.446830943488643273e+00
-1.582281283661573390e+00
2.427077375803382842e-01
2.896568645264986364e-01
3.407569378684852102e-01
3.961623972203901500e-01
4.555010663783604641e-01
5.180420132868339689e-01
5.820418205725356176e-01
6.449256845068843669e-01
7.040264461994800715e-01
7.557145838413188432e-01
7.965850283925028918e-01
8.237249197103931886e-01
8.344195733493307010e-01
8.260865794152079111e-01
7.963414932472766550e-01
7.433120443189749071e-01
6.656189988241920652e-01
5.624955056862133151e-01
4.336873389465898954e-01
2.797913317130507616e-01
1.025942014225712934e-01
-9.471239823595603569e-02
-3.071237842452541056e-01
-5.278336128533300808e-01
-7.489453732950470677e-01
-9.620481108610642318e-01
-1.158780578623215707e+00
-1.332268356728752989e+00
-1.478447426483797011e+00
2.187187311674013979e-01
2.578740689431268107e-01
3.011772298298321382e-01
3.490929882896847136e-01
4.015216354860122183e-01
4.579697065256747024e-01
5.168396418597260844e-01
5.756220008824328715e-01
6.317580815408525563e-01
6.817566503642676912e-01
7.224840455946970330e-01
7.513623713518454705e-01
7.660230038091200289e-01
7.641651422183529663e-01
7.435772085263344655e-01
7.024771732163772597e-01
6.394456961262723338e-01
5.535381521296994789e-01
4.440640038807085466e-01
3.108203127839541113e-01
1.544116293886458879e-01
-2.339683985371346017e-02
-2.189519545506614095e-01
-4.264759481360603233e-01
-6.386767478053266833e-01
-8.472243868081986706e-01
-1.043249074886994698e+00
-1.219033129602010268e+00
-1.369783800801736673e+00
1.810052447453387170e-01
2.120542803614835770e-01
2.475801634062148593e-01
2.883270164157269999e-01
3.343938310928972202e-01
3.854306921822363563e-01
4.398743878440832811e-01
4.951805159603661632e-01
5.487415523758663038e-01
5.971161592601291757e-01
6.373700099109279593e-01
6.671825377005994318e-01
6.844776186984354860e-01
6.872013755057833073e-01
6.733281149213713457e-01
6.411942759452744500e-01
5.894390902256650966e-01
5.170766874772176891e-01
4.231732328687737854e-01
3.070057846639617782e-01
1.683362816941557927e-01
7.850049057226997015e-03
-1.718631192529239404e-01
-3.658706750987812395e-01
-5.673813522348364335e-01
-7.681176128346928200e-01
-9.587616468298024719e-01
-1.130874698716502147e+00
-1.279104149019238079e+00
1.308168231720902297e-01
1.535977465866818215e-01
1.814954869293126660e-01
2.154913994210737316e-01
2.558450447130394823e-01
3.022407419669805861e-01
3.530893232872785448e-01
4.056813096830917953e-01
4.572681019860106999e-01
5.043758433517799844e-01
5.441928156087958435e-01
5.745923355735793603e-01
5.937200535358140296e-01
5.997283294478136240e-01
5.907479361559798692e-01
5.652534708281381493e-01
5.219572989594182255e-01
4.599116496431149836e-01
3.780706548495092467e-01
2.753924809156157449e-01
1.510788275957537230e-01
5.067191063119640994e-03
-1.607785988159690094e-01
-3.421518727933329229e-01
-5.325739793610725359e-01
-7.237022581042698022e-01
-9.058114693221236413e-01
-1.069848091214672392e+00
-1.210111921982768513e+00
6.959060774609403255e-02
8.373430071262351337e-02
1.038657838560882590e-01
1.311905574389131135e-01
1.660708454390037170e-01
2.082047784088346121e-01
2.559010856245776400e-01
3.062494718786795134e-01
3.563020965150296981e-01
4.025188027295872883e-01
4.422082224591584176e-01
4.734000141375860338e-01
4.944362877118999577e-01
5.036625215154095780e-01
4.993347810563008027e-01
4.800530583916735039e-01
4.446172762836141934e-01
3.921114654611015382e-01
3.214263436050854295e-01
2.312757063216611952e-01
1.204396901216469445e-01
-1.170875429541542306e-02
-1.639039792945823359e-01
-3.323357976957799775e-01
-5.107653328628658507e-01
-6.907878214249761895e-01
-8.622767194243130540e-01
-1.015681065104579561e+00
-1.145060978619654612e+00
-1.465008800199907053e-03
3.448703683006198919e-03
1.536082387500343344e-02
3.567213232634971337e-02
6.483324162827301673e-02
1.025058587702203511e-01
1.469096234687830016e-01
1.949315362549231823e-01
2.434119513448069760e-01
2.887963290968058039e-01
3.285501691477008546e-01
3.608842124874338531e-01
3.843522227589651896e-01
3.974980774215552959e-01
3.987251995220198464e-01
3.867469580243332872e-01
3.604337552465525230e-01
3.189009552393768931e-01
2.609449491316153669e-01
1.850519859366819286e-01
8.957738717135929618e-02
-2.665803910749366817e-02
-1.630316961133957965e-01
-3.162993379732730870e-01
-4.805839589745852791e-01
-6.474985174127345644e-01
-8.066582136172941730e-01
-9.480419612067600976e-01
-1.065499252576641576e+00
-8.130999600593233345e-02
-8.618037596188195260e-02
-8.298188985189554334e-02
-7.015461587421903400e-02
-4.719083938785821608e-02
-1.446832727991246258e-02
2.613483762200392857e-02
7.135340965581561667e-02
1.178594518642660377e-01
1.621674812842113234e-01
2.019544329930056115e-01
2.356704332881837949e-01
2.621318972124855318e-01
2.800966846650749797e-01
2.881461691661159064e-01
2.851124569422320287e-01
2.699238351677523684e-01
2.417016696350864358e-01
1.991383718922049850e-01
1.404519631552828551e-01
6.354749359242664597e-02
-3.339528680628443130e-02
-1.505120248242340919e-01
-2.853577946216585559e-01
-4.326209808352040609e-01
-5.841844652443900499e-01
-7.295379945013843459e-01
-8.582860026516946350e-01
-9.639060807736962166e-01
-1.686697954211386075e-01
-1.834680633642431780e-01
-1.891198938023943010e-01
-1.839415308366319224e-01
-1.674084341080478988e-01
-1.399618820813487985e-01
-1.035543182939806656e-01
-6.157123751570681147e-02
-1.744171187510542773e-02
2.545861531897516961e-02
6.509297097500417462e-02
1.001855442274344615e-01
1.298279805568950673e-01
1.530386412160498477e-01
1.685788137186535196e-01
1.754139937057770937e-01
1.725445358726280243e-01
1.590877358233029337e-01
1.336361301653769540e-01
9.415672453807120978e-02
3.811475449682599076e-02
-3.697655626140906177e-02
-1.321042283144193141e-01
-2.457915114266681356e-01
-3.735361719589481710e-01
-5.077346577002627148e-01
-6.379726951441156979e-01
-7.535592587428009415e-01
-8.475198798538170486e-01
-2.619583364921453383e-01
-2.863612099132602506e-01
-3.005500470425848114e-01
-3.027841177415274143e-01
-2.925469545337612831e-01
-2.703787514307282591e-01
-2.382782333792524965e-01
-1.997248889963326168e-01
-1.582454352490731686e-01
-1.170281829348512742e-01
-7.782505775608461462e-02
-4.162628240581904560e-02
-9.054923273681236839e-03
1.916407550765262396e-02
4.199176027223653490e-02
5.853098801118296335e-02
6.786419645583158244e-02
6.913987243066396782e-02
6.088732841800424678e-02
4.088562978270396386e-02
6.233635285571972710e-03
-4.613712243836029514e-02
-1.180621297690964827e-01
-2.090916564808906752e-01
-3.156982226037359784e-01
-4.309800247327002509e-01
-5.448716899577825679e-01
-6.465272969230942968e-01
-7.285522868296617771e-01
-3.593954387685237561e-01
-3.927568341042545486e-01
-4.149146051147026282e-01
-4.241024668053597346e-01
-4.198398205411190687e-01
-4.027629956973344805e-01
-3.749386874000298908e-01
-3.398988529202694453e-01
-3.012284473984756517e-01
-2.619433179399621170e-01
-2.234901070137081391e-01
-1.866104863768564270e-01
-1.516512660231230658e-01
-1.190830710503851392e-01
-8.975302017166814084e-02
-6.440561924519433434e-02
-4.385675299784645015e-02
-2.891149434380249975e-02
-2.103549027681850953e-02
-2.255850496209220110e-02
-3.662290554532227765e-02
-6.675213947114851110e-02
-1.155094091505518977e-01
-1.834759674068626722e-01
-2.681379404125908694e-01
-3.634680898568530272e-01
-4.599563822334002405e-01
-5.468308738955395265e-01
-6.163395236157456214e-01
-4.590435083943244510e-01
-5.005602109221467533e-01
-5.300133138603053684e-01
-5.456281698419666037e-01
-5.469760220933923556e-01
-5.347744724457040855e-01
-5.111428216214040088e-01
-4.796400235050840011e-01
-4.438928573944765366e-01
-4.067459569426334909e-01
-3.693640165372987783e-01
-3.322467698479933951e-01
-2.955088444075424925e-01
-2.594066451219139702e-01
-2.245876533571718181e-01
-1.916554388233540906e-01
-1.613036484264100678e-01
-1.342630090126312181e-01
-1.119645940578072596e-01
-9.675133256992317354e-02
-9.188391296215475679e-02
-1.011684640391451312e-01
-1.277614680352303078e-01
-1.731674130984728888e-01
-2.358811227078133899e-01
-3.108270743627677968e-01
-3.892577737759568279e-01
-4.607056036756989048e-01
-5.172525325788106532e-01
-5.588614319057119140e-01
-6.076749514556288867e-01
-6.437476244510762502e-01
-6.652957646675249359e-01
-6.719140617902330526e-01
-6.644033571511874792e-01
-6.448826168792131108e-01
-6.169254033275997084e-01
-5.841803104851330808e-01
-5.492999221182518488e-01
-5.132060498654835712e-01
-4.762254027655596356e-01
-4.382613011816281490e-01
-3.993794628383389722e-01
-3.600728867269060718e-01
-3.207938078573858154e-01
-2.821383057671492112e-01
-2.447497803952163598e-01
-2.099865684424245815e-01
-1.801427108105314867e-01
-1.584766501527735405e-01
-1.489363789037186359e-01
-1.550774702997115284e-01
-1.791918279077543419e-01
-2.207101331892976637e-01
-2.755317389236559000e-01
-3.358140844603808017e-01
-3.916353385296769130e-01
-4.351281766670724305e-01
-6.567263162577184898e-01
-7.120158648332691742e-01
-7.541023209472711430e-01
-7.811727341817719106e-01
-7.928163713657031542e-01
-7.898642207219582767e-01
-7.744048390334110632e-01
-7.499749512747850844e-01
-7.202146006314936733e-01
-6.876038301797621211e-01
-6.528712961587831431e-01
-6.161990642856205458e-01
-5.773506746657756095e-01
-5.362443717414133726e-01
-4.932461447214235850e-01
-4.486996412476789153e-01
-4.031061993663433984e-01
-3.570480672222620666e-01
-3.117942291314058090e-01
-2.695578394332150962e-01
-2.335109810131268115e-01
-2.075808936470401322e-01
-1.955725195946201589e-01
-2.003641823867866600e-01
-2.221896937732728006e-01
-2.578806686188472863e-01
-3.005782198381340975e-01
-3.411016936492883289e-01
-3.718682407975879567e-01
-7.503039937991746733e-01
-8.113892127344719540e-01
-8.590599708563629866e-01
-8.914152121518980065e-01
-9.079776373314013549e-01
-9.095392105808730587e-01
-8.981180735978673280e-01
-8.771532359563845027e-01
-8.502308068923171147e-01
-8.196968346879583978e-01
-7.861321498528232032e-01
-7.496280784009173859e-01
-7.098822308228406319e-01
-6.667362238852965195e-01
-6.204553042381379946e-01
-5.713424637049184796e-01
-5.198369881186295505e-01
-4.664958255224945782e-01
-4.125289122034423994e-01
-3.600489785279861188e-01
-3.120921167430796839e-01
-2.724703219272607280e-01
-2.450491452886302268e-01
-2.331012223546453654e-01
-2.374594385119417894e-01
-2.557634731784891313e-01
-2.821238122713200513e-01
-3.082338675354363566e-01
-3.270109421133302607e-01
-8.366877419231827373e-01
-9.031564403792274875e-01
-9.562596764849755626e-01
-9.939288406915864904e-01
-1.015519161601335485e+00
-1.021707105132813931e+00
-1.014358969160697788e+00
-9.967438984350132092e-01
-9.723670831502411183e-01
-9.434521977910815815e-01
-9.104923904841937254e-01
-8.735887859512471154e-01
-8.324403602927122892e-01
-7.868807618149332717e-01
-7.371719759761612423e-01
-6.836225432417881720e-01
-6.266879810597717482e-01
-5.669493294126222160e-01
-5.056060642850699338e-01
-4.447118618448801519e-01
-3.871457885825516088e-01
-3.365366192241281973e-01
-2.966829293012986923e-01
-2.710182888242179122e-01
-2.607438791881278584e-01
-2.640950906255460917e-01
-2.760268770389821547e-01
-2.891366861367372643e-01
-2.970095153561780887e-01
-9.121694501017409973e-01
-9.839665145143092762e-01
-1.042727797556892044e+00
-1.086077823803210274e+00
-1.113101030895987886e+00
-1.124232088531190277e+00
-1.121078794944896373e+00
-1.106671151826759791e+00
-1.084377519049310123e+00
-1.056328939318711413e+00
-1.023045826202593434e+00
-9.846947394136763565e-01
-9.410887492446663449e-01
-8.921626054018072516e-01
-8.382447232891853117e-01
-7.797533568406908033e-01
-7.172282024171553472e-01
-6.513672163670352067e-01
-5.834348289820755484e-01
-5.154564974510398301e-01
-4.501987649743032227e-01
-3.910808034785417941e-01
-3.417379944315721563e-01
-3.055534031792579430e-01
-2.838422245040686520e-01
-2.751739291598856996e-01
-2.751167401086884734e-01
-2.770879390543168341e-01
-2.754279308339740995e-01
-9.725590124494548627e-01
-1.049968013253000709e+00
-1.114965257372642959e+00
-1.164752255315689933e+00
-1.197981715564521155e+00
-1.214714811212847856e+00
-1.216187241850350320e+00
-1.205077268073638574e+00
-1.184573781192795661e+00
-1.156732085761868145e+00
-1.122180569386334481e+00
-1.081267030535669749e+00
-1.034018599660549098e+00
-9.805619388465175446e-01
-9.214071416937140713e-01
-8.571517558697616668e-01
-7.885129496098944868e-01
-7.163731158739866656e-01
-6.421228555123237314e-01
-5.678334139791769708e-01
-4.961901097889253598e-01
-4.304131450403418380e-01
-3.739229662624206085e-01
-3.299096308868232352e-01
-2.995912559909006401e-01
-2.816419163973306050e-01
-2.720078585951869465e-01
-2.647927858302217552e-01
-2.550992846028585226e-01
-1.013264815295673360e+00
-1.096789794728452616e+00
-1.168926825826826166e+00
-1.226328010230612886e+00
-1.267089085119735392e+00
-1.290740155627715158e+00
-1.298008127061010653e+00
-1.291107280099733412e+00
-1.272921991797302921e+00
-1.245445992691164738e+00
-1.209471707602812307e+00
-1.165609020076836977e+00
-1.114166144742962050e+00
-1.055563769741447722e+00
-9.905565374720377569e-01
-9.199966345712319304e-01
-8.448381198941136150e-01
-7.661983788391395489e-01
-6.856472877442340019e-01
-6.053220259825256022e-01
-5.278667076247786083e-01
-4.563373029099826450e-01
-3.939298725661605216e-01
-3.435765718426815885e-01
-3.063151099757761564e-01
-2.808098877106029456e-01
-2.632745428755339234e-01
-2.484180127089483381e-01
-2.320691253227623041e-01
-1.029760921289125220e+00
-1.119958681296885805e+00
-1.200301598336728448e+00
-1.266813935614756081e+00
-1.316928791431225543e+00
-1.349504598913962017e+00
-1.364616642544174585e+00
-1.363844290290014305e+00
-1.349634058978347317e+00
-1.323854923577902687e+00
-1.287460265658576297e+00
-1.241358144425101617e+00
-1.186192890754871332e+00
-1.122720884959727883e+00
-1.052001253975846762e+00
-9.751668823870861535e-01
-8.934742435792594195e-01
-8.082995176027116813e-01
-7.214061611597197832e-01
-6.350343921430630090e-01
-5.518105923876523988e-01
-4.746559371342876088e-01
-4.065820105403945561e-01
-3.502659411197252548e-01
-3.065739638783617216e-01
-2.741876979463293562e-01
-2.496034549905389310e-01
-2.281329577586125035e-01
-2.062822574130529774e-01
-1.018891679489242863e+00
-1.116007311070498664e+00
-1.205370276613463743e+00
-1.282388451949774133e+00
-1.343786201025703342e+00
-1.387644923789139506e+00
-1.413257919796685469e+00
-1.421390378428048384e+00
-1.413861741913407855e+00
-1.392282461254976678e+00
-1.357711249029015521e+00
-1.311302974237207541e+00
-1.254049742160220360e+00
-1.187046836243777603e+00
-1.111671295485538780e+00
-1.029365902213062567e+00
-9.416916222845155282e-01
-8.503075362105902979e-01
-7.571913606430846766e-01
-6.646965579059097573e-01
-5.754615684122236230e-01
-4.923187292837711282e-01
-4.181399016724741124e-01
-3.554135807329097951e-01
-3.049335570269210982e-01
-2.655191619659303393e-01
-2.340732838465233723e-01
-2.065704301940629872e-01
-1.801281868049154078e-01
-9.798517905288726126e-01
-1.083313443327827086e+00
-1.181707494371652123e+00
-1.269934414300751602e+00
-1.344044869056215674e+00
-1.401335318960982734e+00
-1.440227878383542270e+00
-1.460530581754337476e+00
-1.463211940974473046e+00
-1.449425676243794925e+00
-1.420192377873843004e+00
-1.376795885998135072e+00
-1.320487161119240360e+00
-1.252647286163484308e+00
-1.174925985059245059e+00
-1.089062449407339761e+00
-9.968888023945285948e-01
-9.003395831868803434e-01
-8.015999501549916362e-01
-7.031535614082147223e-01
-6.076691759665880932e-01
-5.179491864107751420e-01
-4.367939038840110699e-01
-3.666261393990616901e-01
-3.083303617142721387e-01
-2.610673504741222173e-01
-2.223521487774945127e-01
-1.889342404279290566e-01
-1.584710983942865803e-01
-9.148394324686892620e-01
-1.023027903266412242e+00
-1.129285992167627484e+00
-1.228206655516253187e+00
-1.315328301698753144e+00
-1.387233679182558577e+00
-1.441504294450561163e+00
-1.476924554087708064e+00
-1.493439719652065456e+00
-1.491540105760380097e+00
-1.471990387885690810e+00
-1.436009847933603645e+00
-1.384946428836113741e+00
-1.320333522276608829e+00
-1.243983062179224941e+00
-1.157824163128099437e+00
-1.063906538292048731e+00
-9.643724158021871329e-01
-8.615819674021834018e-01
-7.581160825013385507e-01
-6.567118036163137607e-01
-5.601901601317686996e-01
-4.713635946132130883e-01
-3.927224200093571982e-01
-3.254418539246493602e-01
-2.692534440052530842e-01
-2.225138396585503164e-01
-1.828508998400324714e-01
-1.484223473659413151e-01
-8.294145726358561621e-01
-9.400362353436546581e-01
-1.052047171127109992e+00
-1.159971999628303330e+00
-1.259037246638139429e+00
-1.345296026005000423e+00
-1.415612716042287333e+00
-1.467808727317634565e+00
-1.500756980882001379e+00
-1.514130199791186904e+00
-1.508238168468680085e+00
-1.484028989360088646e+00
-1.442749449533528017e+00
-1.385912479414223908e+00
-1.315326292269716646e+00
-1.232981553545989595e+00
-1.141012260289346214e+00
-1.041679575291652782e+00
-9.374321427515315275e-01
-8.309265265471370565e-01
-7.249371908304828027e-01
-6.223411285277867799e-01
-5.260379141582747220e-01
-4.386768444512789134e-01
-3.618590453657412054e-01
-2.960427313131070992e-01
-2.405797336291460309e-01
-1.940822806747429796e-01
-1.551732037553888444e-01
-7.313444739339053369e-01
-8.420029168661344876e-01
-9.572520527630572484e-01
-1.071764195076965631e+00
-1.180679078271805071e+00
-1.279728485864446874e+00
-1.365255966541545130e+00
-1.434276669026652629e+00
-1.484630965465814079e+00
-1.515128362195886647e+00
-1.525491708753339726e+00
-1.516231200307477600e+00
-1.488321957898868231e+00
-1.443087813832451660e+00
-1.382193538795024601e+00
-1.307535483549010502e+00
-1.221214191944883121e+00
-1.125492339880734383e+00
-1.022823432331198878e+00
-9.158670336615891694e-01
-8.074187143970464886e-01
-7.004051082624308533e-01
-5.978172864348589854e-01
-5.024901622964040859e-01
-4.164747131430232008e-01
-3.410033768422046641e-01
-2.764822930329415840e-01
-2.225641091588764497e-01
-1.784052798529607853e-01
)
;

boundaryField
{

    low
    {
        type            zeroGradient;
    }

    up
    {
        type            zeroGradient;
    }

    right
    {
        type            zeroGradient;
    }

    left
    {
        type            zeroGradient;
    }

    frontAndBackPlanes
    {
        type            empty;
    }
}
