/*--------------------------------*- C++ -*----------------------------------*\
  =========                 |
  \\      /  F ield         | OpenFOAM: The Open Source CFD Toolbox
   \\    /   O peration     | Website:  https://openfoam.org
    \\  /    A nd           | Version:  6
     \\/     M anipulation  |
\*---------------------------------------------------------------------------*/
FoamFile
{
    version     2.0;
    format      ascii;
    class       volScalarField;
    location    "1";
    object      T;
}
// * * * * * * * * * * * * * * * * * * * * * * * * * * * * * * * * * * * * * //

dimensions      [0 0 0 1 0 0 0];

internalField   nonuniform List<scalar> 
841
(
-2.295523737235984280e-04
-1.481430520491101605e-04
-4.426341341385225188e-04
-6.460427545233129619e-04
-7.408723925468787413e-04
-6.860163995345367610e-04
-5.026796621836179596e-04
-2.225436168470515603e-04
1.203650388207434173e-04
5.006608022245604295e-04
9.076767240776411087e-04
1.326874494242499380e-03
1.739960297829903999e-03
2.129738088930574220e-03
2.490681963108606119e-03
2.813359406285103736e-03
3.086701909118906312e-03
3.275560752771571483e-03
3.340651250885777902e-03
3.251904759812185731e-03
3.014435010861900559e-03
2.683526734468892269e-03
2.301874354939617388e-03
1.891586004168460938e-03
1.477592049024895483e-03
1.081387032337559123e-03
7.209748910328206460e-04
4.068370262186509021e-04
1.270892677514091950e-04
-3.267417108967688821e-04
-6.646379144080290452e-04
-1.133968270098653901e-03
-1.293753651472296165e-03
-1.141813362685803685e-03
-6.763776750450023511e-04
3.447526967666467076e-05
9.169548910389478018e-04
1.899280094944959382e-03
2.930247264169663548e-03
3.979588570734762451e-03
5.009538949662783319e-03
5.981507025954242718e-03
6.859988636881774772e-03
7.627430793681205974e-03
8.257943057427621913e-03
8.721271549053347116e-03
8.952291091386548744e-03
8.884471268232326663e-03
8.476600107862108935e-03
7.755593674414177144e-03
6.827073453071126966e-03
5.779663665093186242e-03
4.674528825299045093e-03
3.573273003175241828e-03
2.535009781953083408e-03
1.613116455438851939e-03
8.448320781878591867e-04
2.343560250775035677e-04
-6.262083954719174263e-04
-1.269062566336222331e-03
-1.685829383463592710e-03
-1.565227999903894256e-03
-9.510956856536525615e-04
8.937987387484425832e-05
1.437517900611619054e-03
2.984553656778810623e-03
4.627723251176885967e-03
6.292497015187858977e-03
7.926365449246994960e-03
9.467364547278695266e-03
1.085785333492107242e-02
1.204788684374683179e-02
1.300796822594770148e-02
1.370166118771384139e-02
1.408972004191438171e-02
1.410672362557919245e-02
1.370105915881576243e-02
1.285982699845329529e-02
1.164443226303579250e-02
1.018397945001937345e-02
8.582067496479764065e-03
6.915429342430930680e-03
5.258923569913803199e-03
3.691589960293051569e-03
2.296296177156040459e-03
1.145373349250873541e-03
2.797772078422180878e-04
-8.747104085635230798e-04
-1.603202609374938716e-03
-1.762373828759599163e-03
-1.224982781153766999e-03
-8.795253011246428865e-05
1.521053198019570651e-03
3.451100685892340234e-03
5.572485420141205098e-03
7.763807285656916697e-03
9.933656702583806147e-03
1.200856018792728803e-02
1.390887545082708336e-02
1.556245148376904017e-02
1.691086222534266340e-02
1.791743117245919031e-02
1.854445453120612264e-02
1.875576408854096044e-02
1.850293000324738577e-02
1.776093999982560068e-02
1.654915360634623411e-02
1.495255915182719039e-02
1.310690467654010427e-02
1.111538892362170725e-02
9.052416989798419203e-03
6.984526882073297666e-03
4.985745743827605173e-03
3.147841787538666839e-03
1.573280253696113847e-03
3.730277101489810746e-04
-9.577928592575405070e-04
-1.565298448044298834e-03
-1.349285610183441949e-03
-3.531526147421831254e-04
1.277819140943548199e-03
3.376577007397211280e-03
5.776548114213370805e-03
8.340425434912316499e-03
1.094008867437067795e-02
1.347365569767127944e-02
1.585233602509051459e-02
1.798455523985246010e-02
1.978997291661266020e-02
2.120633269568665200e-02
2.219445872596740796e-02
2.272068999672111414e-02
2.275790741734556172e-02
2.227681662513050082e-02
2.127619927278933884e-02
1.979870701151494744e-02
1.794199012836582979e-02
1.584087301511205928e-02
1.359453505697936701e-02
1.127079869539820457e-02
8.919125156233342205e-03
6.588970990635839402e-03
4.350949060290839818e-03
2.301363755250155664e-03
6.231297386153206424e-04
-8.721844150682108365e-04
-1.186784308761422869e-03
-5.350358118982962092e-04
9.162992808111173910e-04
2.986506160677140746e-03
5.489531891348201596e-03
8.256383801563179498e-03
1.115200009140459789e-02
1.404914446100635241e-02
1.684066037963073692e-02
1.942695018059641121e-02
2.170898273724306687e-02
2.360198021842441901e-02
2.504183126657067576e-02
2.599031901427669225e-02
2.641850281806175718e-02
2.630884184742490403e-02
2.564834627044335416e-02
2.445417043446460742e-02
2.278468498337281670e-02
2.074471517773610746e-02
1.846598105072272053e-02
1.604459336167254890e-02
1.354412676419741030e-02
1.100031877792615083e-02
8.434877544855917675e-03
5.877050226932923824e-03
3.370566559668435481e-03
1.086893818195967159e-03
-6.618308322010736482e-04
-5.534713938204073157e-04
5.715579899149346270e-04
2.471003411095025470e-03
4.941946303880496300e-03
7.792796382749067954e-03
1.085957407607770174e-02
1.401457051613577698e-02
1.713622040871779981e-02
2.011443686835917219e-02
2.284213458629303500e-02
2.521575283171546833e-02
2.714802791135033366e-02
2.857503402759907496e-02
2.946045177829568346e-02
2.978055425169674059e-02
2.952699771934154394e-02
2.870059830267525716e-02
2.733382364954273572e-02
2.549799854075302311e-02
2.330370116056594554e-02
2.087815688807913295e-02
1.831391194479210435e-02
1.567153338108022778e-02
1.297793494192563644e-02
1.023594873141289545e-02
7.437285232786528845e-03
4.564204317697165107e-03
1.638707115094989626e-03
-3.714956935314763951e-04
2.539485919155778470e-04
1.885341933624180366e-03
4.238951929857528132e-03
7.097775730006034532e-03
1.027091087309109710e-02
1.360203903699585062e-02
1.697235111520181000e-02
2.026681253612125366e-02
2.337390868618762288e-02
2.618117392560253762e-02
2.858260331047049463e-02
3.049080286552589489e-02
3.184408782046674324e-02
3.260954817329338173e-02
3.277062791693714783e-02
3.232820170313872171e-02
3.129724613242106795e-02
2.972477542469566247e-02
2.769487087647199905e-02
2.532394118827475948e-02
2.273536437120618481e-02
2.001719544108820914e-02
1.722526118666872774e-02
1.437893463713601008e-02
1.146949614261354340e-02
8.469766952742383351e-03
5.327934806258692937e-03
1.952342974314238370e-03
-3.345289868235419150e-05
1.176267061157075001e-03
3.342353107635709971e-03
6.158795169105163794e-03
9.399558877694801085e-03
1.287745951112241952e-02
1.644452399148143076e-02
1.999132323053290361e-02
2.340962929572983769e-02
2.658715737957925707e-02
2.940786872884763176e-02
3.176582380041474002e-02
3.357585709985696359e-02
3.478062224998749313e-02
3.535325003949707501e-02
3.528550963375678973e-02
3.458962601696141670e-02
3.329459462286294552e-02
3.146196587741714040e-02
2.918857604976791975e-02
2.659707312992096867e-02
2.380801605505812255e-02
2.090590248133424381e-02
1.794135018221567832e-02
1.492736642130081635e-02
1.184985323464918944e-02
8.680919752418796154e-03
5.382632744852552942e-03
1.904996919396186950e-03
3.343041156941087559e-04
2.173995766979903380e-03
4.892264480451292800e-03
8.170282464423583857e-03
1.177790982683766217e-02
1.553486863430334798e-02
1.930365282435203556e-02
2.298511959908014143e-02
2.647892884655417972e-02
2.967319144541762446e-02
3.245063973412825459e-02
3.470723234457757239e-02
3.636216525528485760e-02
3.736421247510497007e-02
3.769428126850778854e-02
3.735367560553297384e-02
3.636579419070985059e-02
3.477357468664979412e-02
3.265186654800063953e-02
3.010869572762599547e-02
2.727276478547443345e-02
2.426337869983976464e-02
2.116289252391760287e-02
1.801947670430079779e-02
1.484380021652366086e-02
1.162386161081877499e-02
8.347489675795521577e-03
5.020413779873824853e-03
1.684741856826653264e-03
7.222966429848452557e-04
3.215628102502530658e-03
6.485914056041812426e-03
1.020863963838182162e-02
1.415478709197822565e-02
1.815535205853729614e-02
2.208624400796254175e-02
2.586077831434746913e-02
2.938787328013814024e-02
3.255752410464824581e-02
3.525330069129951893e-02
3.737529046794817178e-02
3.884847534261762908e-02
3.962904448998769841e-02
3.970566908001353645e-02
3.908923650695229901e-02
3.781343991308265540e-02
3.593297573527677591e-02
3.353381015403064658e-02
3.073253222920250757e-02
2.766221621301722181e-02
2.444208546009293825e-02
2.115420072041140562e-02
1.784792068746040086e-02
1.453592271474882062e-02
1.121521821853274821e-02
7.893935033843058058e-03
4.618209996126238642e-03
1.482933762700680037e-03
1.117416375218471944e-03
4.258995314460823495e-03
8.056341214152664201e-03
1.218581173280414327e-02
1.642605667115632981e-02
2.062417273342030677e-02
2.467306869442848286e-02
2.850014575695635627e-02
3.202546491431888104e-02
3.514279714851628600e-02
3.773901550773501451e-02
3.971972654871438330e-02
4.101650709241775467e-02
4.159339830570126656e-02
4.144616703923241496e-02
4.059373746298607089e-02
3.907783948793071976e-02
3.696179488854008793e-02
3.433863458206242586e-02
3.132955392161109603e-02
2.806937206399131093e-02
2.467651803605231883e-02
2.123419152700970966e-02
1.779419120814189695e-02
1.437418085333664122e-02
1.098019479457525670e-02
7.635042599897749402e-03
4.403152128733137452e-03
1.388850718900872276e-03
1.504852894622012854e-03
5.264875224922424893e-03
9.546024212335120149e-03
1.403213696762681435e-02
1.851509700385887969e-02
2.286231205086550200e-02
2.698593230752684147e-02
3.082969921635915489e-02
3.432524364345945767e-02
3.737239312678054121e-02
3.986281142674345801e-02
4.170933701825221135e-02
4.285134626773594302e-02
4.325997452538399290e-02
4.293728290713906548e-02
4.190816728372329797e-02
4.021961699201045265e-02
3.793986599810274252e-02
3.516493720939761064e-02
3.201608830401012074e-02
2.862627207810112054e-02
2.511088696092688213e-02
2.155351074013367799e-02
1.800791538148326792e-02
1.449586432418027010e-02
1.102965688522205417e-02
7.639188595646505091e-03
4.392413789479038960e-03
1.386677951410522202e-03
1.874314707113721714e-03
6.210540925638674721e-03
1.092734000670728990e-02
1.571943408407410966e-02
2.039689826313166240e-02
2.485022554327133079e-02
2.901235696604548275e-02
3.284372851155969997e-02
3.628779425006573717e-02
3.925087345992200882e-02
4.163198231432987256e-02
4.335228894662702948e-02
4.435928962767422823e-02
4.463145956571541728e-02
4.417617802384061348e-02
4.302285599765059976e-02
4.122154229002678721e-02
3.884252826034342160e-02
3.598114279510667562e-02
3.275528009077144365e-02
2.929207021925856261e-02
2.570194357584131700e-02
2.206585934055916437e-02
1.843828152270349935e-02
1.484272567297770067e-02
1.129565390014933800e-02
7.829840657312417407e-03
4.513365108049122686e-03
1.435798445301378302e-03
2.220453118179031068e-03
7.086381625224340286e-03
1.219020384161424893e-02
1.724099310283417133e-02
2.206991353182629137e-02
2.659275103680058816e-02
3.076433740918830748e-02
3.456022761013450434e-02
3.793505916621476431e-02
4.080224106153244878e-02
4.306900563282595878e-02
4.466599938301006600e-02
4.554986443015174996e-02
4.570637288609622623e-02
4.514796095375838564e-02
4.390763192351457289e-02
4.203720094393369883e-02
3.960728047993532230e-02
3.671004789469147628e-02
3.345736163742327879e-02
2.996824777874647697e-02
2.634475427034366560e-02
2.266393051764981070e-02
1.897728298510540854e-02
1.530915776561188497e-02
1.167754651129662008e-02
8.117587308415096306e-03
4.698684930207532376e-03
1.507406977120121123e-03
2.541829809589233550e-03
7.890336831622315680e-03
1.333235235697526055e-02
1.859480329471529386e-02
2.353391893159444831e-02
2.809287068658834763e-02
3.224812430288742648e-02
3.598880433478185425e-02
3.927836733418649251e-02
4.203704927884845122e-02
4.418116714851976629e-02
4.565173484062486076e-02
4.641525794571377955e-02
4.646545639319503429e-02
4.581986259960478536e-02
4.451479978894072598e-02
4.260343836538254408e-02
4.015564643938004941e-02
3.725965282788758909e-02
3.401939767063524855e-02
3.054338562140715765e-02
2.692405075922004593e-02
2.323102091610649775e-02
1.951129612113636225e-02
1.578788529823040021e-02
1.207949181953681637e-02
8.423592547579603768e-03
4.893709999865496381e-03
1.579243505390983977e-03
2.842052093960630802e-03
8.626315302460461909e-03
1.435465901836755452e-02
1.977634477363736376e-02
2.478052344834691043e-02
2.934056748954688362e-02
3.345367500010250350e-02
3.711979214705326408e-02
4.030768194777167857e-02
4.294314439920309673e-02
4.495248293851952792e-02
4.628770056291841434e-02
4.692612663671956452e-02
4.686999391171534080e-02
4.614243083524695310e-02
4.478333422381300388e-02
4.284731266848500891e-02
4.040338196834650231e-02
3.753531526623107850e-02
3.433839622546472348e-02
3.090954743996189927e-02
2.732911087997363236e-02
2.365795148706676190e-02
1.993581685576695239e-02
1.618291622997104773e-02
1.241856103369556874e-02
8.684028672827134171e-03
5.059579234793231545e-03
1.641429850067527025e-03
3.131950682486299778e-03
9.305739357149090188e-03
1.525748710401142634e-02
2.077547937452513954e-02
2.579226558082143780e-02
3.031427181672726595e-02
3.435776470961190293e-02
3.792862852223169434e-02
4.099642065920703488e-02
4.349096629162025468e-02
4.534857510004164372e-02
4.653296895394837956e-02
4.703334173848185140e-02
4.686131119488187724e-02
4.604627046040491584e-02
4.463228534906955869e-02
4.267582974037687632e-02
4.024587159269331360e-02
3.742180281616516724e-02
3.429011926989377484e-02
3.093577967021210809e-02
2.742582196443646772e-02
2.380984813033558065e-02
2.011863251680188341e-02
1.636893472420271681e-02
1.258144791152136094e-02
8.804402861850397707e-03
5.130699026958310434e-03
1.670103406066408835e-03
3.419235030213554384e-03
9.925391576200221638e-03
1.601832428568756087e-02
2.155422093066980058e-02
2.652223466477497335e-02
3.096392647205043966e-02
3.491010530619675228e-02
3.836552092048107349e-02
4.129447583287957496e-02
4.362818280299413792e-02
4.531327110425183852e-02
4.632583814357502799e-02
4.666796724949903025e-02
4.636170411397087798e-02
4.544355009311457777e-02
4.396255255226624165e-02
4.197812596612313096e-02
3.955985658602435839e-02
3.678360564687530726e-02
3.372810489712640969e-02
3.046620384446839871e-02
2.705136850077406729e-02
2.352027243098529091e-02
1.989230835623920224e-02
1.618126996282362798e-02
1.241172308759669329e-02
8.645275501098184656e-03
4.999581373873921743e-03
1.619536227111763402e-03
3.686822659831153447e-03
1.043290963356650718e-02
1.655590153187068425e-02
2.201464338569329715e-02
2.686783899168517301e-02
3.118889119675078911e-02
3.501538529416246825e-02
3.834110163505273505e-02
4.111721004146706021e-02
4.327309221436414360e-02
4.476632657826249556e-02
4.558567180134392993e-02
4.574738558236259023e-02
4.528495110309176119e-02
4.424275526398527281e-02
4.267563295003314050e-02
4.064677099070272692e-02
3.822761108550348091e-02
3.549185526747801467e-02
3.251159288846008910e-02
2.934877854844647124e-02
2.604393369337341599e-02
2.261980209268979122e-02
1.908356083262879171e-02
1.544619936016795349e-02
1.174043766277372940e-02
8.051562840824148110e-03
4.541735911179519726e-03
1.430402756987200893e-03
3.885334303364474436e-03
1.071686714571801029e-02
1.672285325369701064e-02
2.199675146293991052e-02
2.666946148282177756e-02
3.083792038695830698e-02
3.453414975259160719e-02
3.772926952034563047e-02
4.035161002681096620e-02
4.232528521159922147e-02
4.361853288614417345e-02
4.423383048673577844e-02
4.420227660377123308e-02
4.356929767126119235e-02
4.238771757807607843e-02
4.071838005126321436e-02
3.862901543924446984e-02
3.619361486360467284e-02
3.348509492235469259e-02
3.057062861396949577e-02
2.750405488420142042e-02
2.431438352945061721e-02
2.101157356225297548e-02
1.759017632192071134e-02
1.406060935403517786e-02
1.046948310190184799e-02
6.938999320958000143e-03
3.696157164751690417e-03
1.062460820746067560e-03
3.952282633753384511e-03
1.062789072781194881e-02
1.632720715992521526e-02
2.129204498705443427e-02
2.571811526925897942e-02
2.971074919851818610e-02
3.328225231547855822e-02
3.636687923059037097e-02
3.885855298614437903e-02
4.067198006915759972e-02
4.178571978815842636e-02
4.221557150606769504e-02
4.200738459224664240e-02
4.121847141565075645e-02
3.990919608079867426e-02
3.814604593273911159e-02
3.600103614384010664e-02
3.355099871328196676e-02
3.086932858977370353e-02
2.802059203824030717e-02
2.505331823304283653e-02
2.198846366177865247e-02
1.882558691862435199e-02
1.554762670394395710e-02
1.216844765472960103e-02
8.756049908009677987e-03
5.480810363084859943e-03
2.637948839196683267e-03
5.977917529208214703e-04
3.802661516186759717e-03
9.982259625710499309e-03
1.514507865630768980e-02
1.966122012469417868e-02
2.376927537511316565e-02
2.756695131482680278e-02
3.103224592907325233e-02
3.404807656069545885e-02
3.646174682915253457e-02
3.817184767023292652e-02
3.916557133186710643e-02
3.947022549188426016e-02
3.914527262354547399e-02
3.825819904264105703e-02
3.687523949500230019e-02
3.506734018629469041e-02
3.291002338446654546e-02
3.048305005293859213e-02
2.786105168105989724e-02
2.510821255430324001e-02
2.227120955001591490e-02
1.936674196745029677e-02
1.638591202239800260e-02
1.330244982997271126e-02
1.013689847876101183e-02
6.983466425597587360e-03
4.060084248903856122e-03
1.704703906158103752e-03
2.248660696377156767e-04
3.368954851034083441e-03
8.659354452699715571e-03
1.304452326094738407e-02
1.695859127254623414e-02
2.065766211447855535e-02
2.422280818684865306e-02
2.759097565113661707e-02
3.058170159797821835e-02
3.298202048718484186e-02
3.466575012070854944e-02
3.562541113593384323e-02
3.589561384949582074e-02
3.554634641217870733e-02
3.465287424981750020e-02
3.328488526091957084e-02
3.151611113507257061e-02
2.942420690318975351e-02
2.709138598995372224e-02
2.459488241545308707e-02
2.200053126295805836e-02
1.935661950960378130e-02
1.667904956562734839e-02
1.395215093183604232e-02
1.113976563734666615e-02
8.267843429777786690e-03
5.453924452438689563e-03
2.946785328550102865e-03
1.077692208172061506e-03
4.033313026412164136e-05
2.667515022475714509e-03
6.726735339281219618e-03
1.011757414118821113e-02
1.325815834757095545e-02
1.641046363764515556e-02
1.964864029709771989e-02
2.287636712163622008e-02
2.584678768182855496e-02
2.827478682978918842e-02
2.999895742725569581e-02
3.101056594869693386e-02
3.134570841159992766e-02
3.107930981163934195e-02
3.029109068808639310e-02
2.905010265723042759e-02
2.743042859703034506e-02
2.550937586325004863e-02
2.337101854726313446e-02
2.109508179486014809e-02
1.875075768345850144e-02
1.639170851403089560e-02
1.403679900737911379e-02
1.166410453256713949e-02
9.221347248475560837e-03
6.730278268191036348e-03
4.316558912510442061e-03
2.232688419363582956e-03
7.675788688397935022e-04
1.949543766253906550e-05
1.819294820126850058e-03
4.480500724583093286e-03
6.740453560110974511e-03
8.939427755835496411e-03
1.135104912509137150e-02
1.407619496330993203e-02
1.701709108741775167e-02
1.987713360590514025e-02
2.229786040129529481e-02
2.407347093816133640e-02
2.518456551843386432e-02
2.566021676637754781e-02
2.557317697651643323e-02
2.500237579039711611e-02
2.401134437900624002e-02
2.266872661842369435e-02
2.104796933020328803e-02
1.923067505525782525e-02
1.729686766212165314e-02
1.531909830068327143e-02
1.335878681602139378e-02
1.144343023599644904e-02
9.546107080678691015e-03
7.588744803417467669e-03
5.567246959900682031e-03
3.589138732113658723e-03
1.883585305052048412e-03
6.962084921933398224e-04
7.979478500619739049e-05
1.024484414855273817e-03
2.395049420365633151e-03
3.558470577379806501e-03
4.744479825883647292e-03
6.239604347468984298e-03
8.201932096230012126e-03
1.059093751346362570e-02
1.311394701809340951e-02
1.536397258632411084e-02
1.709117754125147326e-02
1.825832973866021308e-02
1.887810137351132733e-02
1.901263196103174236e-02
1.873302709386846093e-02
1.809095383017957429e-02
1.714279603066349786e-02
1.595009139119595021e-02
1.458478817807533356e-02
1.311875975140608906e-02
1.162209552320764283e-02
1.016275433929426063e-02
8.782974286877130374e-03
7.461054472997006963e-03
6.092412851787938101e-03
4.624718320472483504e-03
3.117277931760093022e-03
1.752047449432483917e-03
7.443418793334781371e-04
1.529049315541223728e-04
4.730194295156011242e-04
9.109556567547586175e-04
1.241203205639033981e-03
1.568054819770569068e-03
2.160528700643069271e-03
3.213423314857279112e-03
4.756610755938359310e-03
6.581814027874222095e-03
8.331387901082525430e-03
9.755470755864619620e-03
1.079695366252019471e-02
1.144262330362953543e-02
1.173234861758781777e-02
1.172098999636158809e-02
1.144357517468776002e-02
1.093873871257542395e-02
1.024784082256609621e-02
9.421723686266775949e-03
8.513130803997213253e-03
7.574858527160579363e-03
6.668915037526427364e-03
5.849762924270055994e-03
5.117858547624420072e-03
4.369087598018918904e-03
3.509092032763767941e-03
2.533536470099156512e-03
1.553741219496550469e-03
7.513024893688933061e-04
2.022845941397228837e-04
2.077927777280479972e-04
1.462093792509749804e-04
4.367950828938118587e-05
-1.541482753999959417e-04
-2.442685774556974760e-04
-1.339916328020178460e-05
6.287541114152265772e-04
1.541859342137958397e-03
2.457330314541346719e-03
3.205553322351154324e-03
3.758621604154055093e-03
4.117669373787298873e-03
4.314157585269482939e-03
4.382378241574765541e-03
4.337685087353757886e-03
4.196950829942156305e-03
3.975012633511668461e-03
3.692995552039684496e-03
3.371192001127329852e-03
3.030437313050529484e-03
2.702548810795382152e-03
2.428823530662324939e-03
2.223920944415995384e-03
2.014312142872729146e-03
1.718691078654355870e-03
1.314552656372039267e-03
8.570154009008067262e-04
4.559098848365369960e-04
1.512029707354862096e-04
)
;

boundaryField
{
       low
    {
        type            fixedValue;
        value           uniform 0.00;
    }

    up
    {
        type            fixedValue;
        value           uniform 0.00;
    }

    right
    {
        type            fixedValue;
        value           uniform 0.00;
    }

    left
    {
        type            fixedValue;
        value           uniform 0.00;
    }
    frontAndBackPlanes
    {
        type            empty;
    }
}
