/*--------------------------------*- C++ -*----------------------------------*\
  =========                 |
  \\      /  F ield         | OpenFOAM: The Open Source CFD Toolbox
   \\    /   O peration     | Website:  https://openfoam.org
    \\  /    A nd           | Version:  6
     \\/     M anipulation  |
\*---------------------------------------------------------------------------*/
FoamFile
{
    version     2.0;
    format      ascii;
    class       volScalarField;
    location    "1";
    object      V;
}
// * * * * * * * * * * * * * * * * * * * * * * * * * * * * * * * * * * * * * //

dimensions      [0 3 0 0 0 0 0];

internalField   nonuniform List<scalar> 
841
(
1.10688e-05
1.22887e-05
1.3469e-05
1.44252e-05
1.50873e-05
1.56828e-05
1.58197e-05
1.60412e-05
1.63904e-05
1.65315e-05
1.69521e-05
1.74255e-05
1.81851e-05
1.89583e-05
1.99751e-05
2.11153e-05
2.25677e-05
2.43225e-05
2.63127e-05
2.83636e-05
3.01876e-05
3.15986e-05
3.2821e-05
3.39e-05
3.49282e-05
3.59619e-05
3.70498e-05
3.81739e-05
3.93886e-05
1.60184e-05
1.73972e-05
1.86653e-05
1.96718e-05
2.03707e-05
2.09748e-05
2.11595e-05
2.1395e-05
2.17173e-05
2.18725e-05
2.22534e-05
2.26843e-05
2.33374e-05
2.40048e-05
2.48425e-05
2.57567e-05
2.68513e-05
2.80847e-05
2.9368e-05
3.05584e-05
3.15184e-05
3.22583e-05
3.28808e-05
3.34572e-05
3.4084e-05
3.47948e-05
3.56266e-05
3.66148e-05
3.7662e-05
2.01366e-05
2.15899e-05
2.28456e-05
2.37908e-05
2.44146e-05
2.4913e-05
2.50479e-05
2.52073e-05
2.54157e-05
2.54996e-05
2.57369e-05
2.60117e-05
2.64207e-05
2.6837e-05
2.7329e-05
2.78354e-05
2.83628e-05
2.8838e-05
2.91573e-05
2.92248e-05
2.90714e-05
2.89136e-05
2.87354e-05
2.86628e-05
2.87803e-05
2.91259e-05
2.97072e-05
3.05845e-05
3.146e-05
2.31498e-05
2.44345e-05
2.54582e-05
2.6146e-05
2.65234e-05
2.6771e-05
2.67234e-05
2.66996e-05
2.67107e-05
2.66326e-05
2.6656e-05
2.671e-05
2.68371e-05
2.69708e-05
2.712e-05
2.72477e-05
2.72998e-05
2.71893e-05
2.68136e-05
2.61147e-05
2.52247e-05
2.44687e-05
2.37678e-05
2.32946e-05
2.31121e-05
2.32735e-05
2.37505e-05
2.45844e-05
2.53509e-05
2.52361e-05
2.6248e-05
2.69735e-05
2.73707e-05
2.74953e-05
2.75141e-05
2.7309e-05
2.7148e-05
2.7027e-05
2.68394e-05
2.6726e-05
2.66424e-05
2.66039e-05
2.65774e-05
2.65441e-05
2.64801e-05
2.63071e-05
2.59366e-05
2.52725e-05
2.42764e-05
2.3117e-05
2.21507e-05
2.1281e-05
2.0707e-05
2.04728e-05
2.06394e-05
2.1143e-05
2.19853e-05
2.26946e-05
2.65062e-05
2.72521e-05
2.7717e-05
2.78845e-05
2.78321e-05
2.77152e-05
2.74375e-05
2.72332e-05
2.70821e-05
2.68724e-05
2.67284e-05
2.6617e-05
2.65496e-05
2.6503e-05
2.64559e-05
2.63886e-05
2.62251e-05
2.58829e-05
2.52725e-05
2.43583e-05
2.33e-05
2.24349e-05
2.16743e-05
2.122e-05
2.11042e-05
2.1377e-05
2.19395e-05
2.27492e-05
2.33593e-05
2.73912e-05
2.78509e-05
2.80673e-05
2.80413e-05
2.78615e-05
2.76726e-05
2.73736e-05
2.71783e-05
2.70499e-05
2.68572e-05
2.67416e-05
2.66676e-05
2.66674e-05
2.67043e-05
2.67803e-05
2.68719e-05
2.69342e-05
2.69008e-05
2.66911e-05
2.62572e-05
2.57022e-05
2.52843e-05
2.4939e-05
2.48236e-05
2.49703e-05
2.53752e-05
2.59108e-05
2.64951e-05
2.68229e-05
2.81381e-05
2.82701e-05
2.82081e-05
2.79655e-05
2.76334e-05
2.73455e-05
2.69808e-05
2.67375e-05
2.65639e-05
2.63136e-05
2.61607e-05
2.60632e-05
2.60862e-05
2.61687e-05
2.63479e-05
2.65942e-05
2.69092e-05
2.7251e-05
2.75531e-05
2.77527e-05
2.78722e-05
2.80488e-05
2.82424e-05
2.85183e-05
2.89193e-05
2.93508e-05
2.96739e-05
2.97873e-05
2.96252e-05
2.88181e-05
2.87277e-05
2.84632e-05
2.80517e-05
2.75912e-05
2.72069e-05
2.67694e-05
2.64593e-05
2.62131e-05
2.58809e-05
2.56524e-05
2.5486e-05
2.54645e-05
2.55161e-05
2.56955e-05
2.59718e-05
2.63703e-05
2.6865e-05
2.73995e-05
2.79073e-05
2.83683e-05
2.88479e-05
2.93118e-05
2.97608e-05
3.02448e-05
3.0604e-05
3.06917e-05
3.03984e-05
2.98195e-05
2.93314e-05
2.91867e-05
2.8855e-05
2.83818e-05
2.78778e-05
2.74662e-05
2.70207e-05
2.67079e-05
2.64534e-05
2.61069e-05
2.5858e-05
2.56704e-05
2.56289e-05
2.56639e-05
2.58299e-05
2.60976e-05
2.64938e-05
2.69949e-05
2.7547e-05
2.80851e-05
2.85859e-05
2.91026e-05
2.95968e-05
3.00557e-05
3.0529e-05
3.08306e-05
3.07941e-05
3.0292e-05
2.94652e-05
2.97093e-05
2.96286e-05
2.93194e-05
2.88511e-05
2.83566e-05
2.79627e-05
2.75613e-05
2.73074e-05
2.71153e-05
2.68302e-05
2.66261e-05
2.64757e-05
2.64507e-05
2.64958e-05
2.66502e-05
2.68885e-05
2.72187e-05
2.76088e-05
2.80003e-05
2.83347e-05
2.86169e-05
2.89407e-05
2.9264e-05
2.96218e-05
3.00518e-05
3.03907e-05
3.0432e-05
3.00042e-05
2.91676e-05
2.98635e-05
2.98628e-05
2.95743e-05
2.90968e-05
2.85913e-05
2.81917e-05
2.78172e-05
2.76129e-05
2.74832e-05
2.72646e-05
2.71072e-05
2.69935e-05
2.69748e-05
2.70152e-05
2.71322e-05
2.73052e-05
2.75155e-05
2.77184e-05
2.78504e-05
2.78621e-05
2.77969e-05
2.78069e-05
2.78557e-05
2.80656e-05
2.84525e-05
2.89149e-05
2.91982e-05
2.90685e-05
2.84304e-05
2.97816e-05
2.98102e-05
2.94975e-05
2.89713e-05
2.84179e-05
2.79776e-05
2.75915e-05
2.73961e-05
2.72873e-05
2.70936e-05
2.69476e-05
2.68393e-05
2.6805e-05
2.68228e-05
2.68952e-05
2.70044e-05
2.71145e-05
2.71732e-05
2.71147e-05
2.68967e-05
2.65849e-05
2.6365e-05
2.6214e-05
2.63266e-05
2.66991e-05
2.72861e-05
2.77939e-05
2.79307e-05
2.74792e-05
2.95438e-05
2.95762e-05
2.92227e-05
2.86384e-05
2.80308e-05
2.75453e-05
2.71381e-05
2.69375e-05
2.6832e-05
2.66435e-05
2.64954e-05
2.63823e-05
2.63329e-05
2.63326e-05
2.63766e-05
2.6448e-05
2.65028e-05
2.64855e-05
2.63306e-05
2.59991e-05
2.55639e-05
2.52221e-05
2.49661e-05
2.50403e-05
2.54263e-05
2.61166e-05
2.67854e-05
2.70908e-05
2.67422e-05
2.92323e-05
2.92633e-05
2.88731e-05
2.82418e-05
2.75934e-05
2.70772e-05
2.66577e-05
2.64544e-05
2.63489e-05
2.61594e-05
2.60077e-05
2.58913e-05
2.58378e-05
2.58346e-05
2.58756e-05
2.59439e-05
2.59953e-05
2.59743e-05
2.58171e-05
2.5485e-05
2.50462e-05
2.46908e-05
2.44243e-05
2.45137e-05
2.49325e-05
2.56856e-05
2.64193e-05
2.675e-05
2.63687e-05
2.89093e-05
2.89424e-05
2.8524e-05
2.78577e-05
2.71811e-05
2.66463e-05
2.62222e-05
2.60188e-05
2.59108e-05
2.57167e-05
2.55599e-05
2.54405e-05
2.5389e-05
2.53916e-05
2.54442e-05
2.55297e-05
2.56073e-05
2.56241e-05
2.55183e-05
2.525e-05
2.48769e-05
2.45719e-05
2.43501e-05
2.44829e-05
2.49402e-05
2.57204e-05
2.64436e-05
2.66916e-05
2.61727e-05
2.86157e-05
2.86563e-05
2.82199e-05
2.7532e-05
2.68403e-05
2.62987e-05
2.5877e-05
2.56737e-05
2.5557e-05
2.53506e-05
2.51827e-05
2.5056e-05
2.50071e-05
2.5019e-05
2.5092e-05
2.52087e-05
2.53352e-05
2.54232e-05
2.54131e-05
2.52634e-05
2.50164e-05
2.48198e-05
2.46916e-05
2.48873e-05
2.53777e-05
2.61332e-05
2.67511e-05
2.67861e-05
2.60038e-05
2.84202e-05
2.84636e-05
2.80125e-05
2.73116e-05
2.66148e-05
2.60755e-05
2.56603e-05
2.54528e-05
2.53146e-05
2.50811e-05
2.48876e-05
2.47405e-05
2.46862e-05
2.47021e-05
2.47955e-05
2.49494e-05
2.51397e-05
2.53251e-05
2.54495e-05
2.54689e-05
2.54073e-05
2.53778e-05
2.53919e-05
2.56619e-05
2.6166e-05
2.68193e-05
2.72003e-05
2.68499e-05
2.56413e-05
2.84601e-05
2.84647e-05
2.79757e-05
2.72516e-05
2.65481e-05
2.60121e-05
2.56021e-05
2.53804e-05
2.51995e-05
2.49132e-05
2.46661e-05
2.44708e-05
2.43869e-05
2.43858e-05
2.4484e-05
2.4666e-05
2.4921e-05
2.52186e-05
2.55073e-05
2.57419e-05
2.59254e-05
2.61255e-05
2.63325e-05
2.66775e-05
2.71542e-05
2.7584e-05
2.75367e-05
2.65618e-05
2.47081e-05
2.88795e-05
2.87505e-05
2.81592e-05
2.73701e-05
2.66357e-05
2.60868e-05
2.56686e-05
2.54123e-05
2.51569e-05
2.47792e-05
2.4434e-05
2.41435e-05
2.39839e-05
2.39214e-05
2.39834e-05
2.41579e-05
2.44503e-05
2.48447e-05
2.52972e-05
2.57637e-05
2.62261e-05
2.66972e-05
2.7128e-05
2.75251e-05
2.79058e-05
2.79585e-05
2.72609e-05
2.54045e-05
2.26869e-05
2.97128e-05
2.93219e-05
2.85349e-05
2.76139e-05
2.68036e-05
2.62074e-05
2.57522e-05
2.54282e-05
2.50553e-05
2.45364e-05
2.40356e-05
2.35887e-05
2.32893e-05
2.31015e-05
2.30632e-05
2.31687e-05
2.34405e-05
2.38799e-05
2.44536e-05
2.51224e-05
2.58502e-05
2.659e-05
2.72369e-05
2.7634e-05
2.78298e-05
2.73506e-05
2.58083e-05
2.28781e-05
1.91626e-05
3.08525e-05
3.01084e-05
2.9049e-05
2.79316e-05
2.70006e-05
2.63281e-05
2.58303e-05
2.54555e-05
2.49986e-05
2.43709e-05
2.37383e-05
2.31512e-05
2.27131e-05
2.23935e-05
2.22355e-05
2.22403e-05
2.24406e-05
2.28512e-05
2.34489e-05
2.42022e-05
2.50685e-05
2.59614e-05
2.67285e-05
2.70864e-05
2.71038e-05
2.61823e-05
2.3964e-05
2.0198e-05
1.5719e-05
3.21693e-05
3.0976e-05
2.95683e-05
2.81972e-05
2.71227e-05
2.63844e-05
2.59028e-05
2.55886e-05
2.51987e-05
2.46087e-05
2.39769e-05
2.3367e-05
2.28825e-05
2.25086e-05
2.22874e-05
2.2228e-05
2.23638e-05
2.27167e-05
2.32713e-05
2.40053e-05
2.4881e-05
2.58038e-05
2.66029e-05
2.69508e-05
2.691e-05
2.58225e-05
2.33166e-05
1.91489e-05
1.42504e-05
3.33078e-05
3.15877e-05
2.97796e-05
2.81224e-05
2.69045e-05
2.61315e-05
2.57389e-05
2.56065e-05
2.54413e-05
2.50406e-05
2.45502e-05
2.40438e-05
2.36183e-05
2.32822e-05
2.30742e-05
2.30103e-05
2.31205e-05
2.3429e-05
2.39272e-05
2.46009e-05
2.54234e-05
2.63122e-05
2.71062e-05
2.75042e-05
2.75383e-05
2.65425e-05
2.40856e-05
1.9866e-05
1.48036e-05
3.39165e-05
3.1606e-05
2.93516e-05
2.73768e-05
2.60131e-05
2.52351e-05
2.50078e-05
2.51938e-05
2.54403e-05
2.54136e-05
2.52415e-05
2.50011e-05
2.47746e-05
2.46e-05
2.45107e-05
2.45276e-05
2.46726e-05
2.49656e-05
2.54039e-05
2.59796e-05
2.66789e-05
2.74544e-05
2.82003e-05
2.87445e-05
2.90565e-05
2.8545e-05
2.6662e-05
2.29536e-05
1.81688e-05
3.36312e-05
3.06501e-05
2.7876e-05
2.55158e-05
2.39594e-05
2.31569e-05
2.31187e-05
2.3711e-05
2.4518e-05
2.50203e-05
2.53218e-05
2.54923e-05
2.55884e-05
2.56822e-05
2.57999e-05
2.59626e-05
2.61799e-05
2.64603e-05
2.68055e-05
2.72107e-05
2.76735e-05
2.82043e-05
2.88162e-05
2.95997e-05
3.04241e-05
3.09027e-05
3.03263e-05
2.79958e-05
2.42646e-05
3.21278e-05
2.83364e-05
2.49134e-05
2.20453e-05
2.01857e-05
1.92619e-05
1.93362e-05
2.02996e-05
2.16817e-05
2.27403e-05
2.35534e-05
2.41705e-05
2.46138e-05
2.49882e-05
2.53127e-05
2.56026e-05
2.58541e-05
2.60583e-05
2.62217e-05
2.63399e-05
2.64156e-05
2.65301e-05
2.68754e-05
2.79141e-05
2.93897e-05
3.12632e-05
3.26822e-05
3.26751e-05
3.09842e-05
2.95353e-05
2.49005e-05
2.08183e-05
1.74407e-05
1.52618e-05
1.41796e-05
1.42888e-05
1.55091e-05
1.73309e-05
1.8815e-05
2.00227e-05
2.09781e-05
2.16753e-05
2.22422e-05
2.26967e-05
2.30454e-05
2.32785e-05
2.33738e-05
2.33446e-05
2.31855e-05
2.2895e-05
2.26072e-05
2.26808e-05
2.38989e-05
2.58989e-05
2.89811e-05
3.22287e-05
3.44895e-05
3.49454e-05
2.62875e-05
2.09336e-05
1.63316e-05
1.25839e-05
1.01991e-05
9.04003e-06
9.21165e-06
1.06575e-05
1.28395e-05
1.46641e-05
1.61877e-05
1.74115e-05
1.83139e-05
1.90354e-05
1.95999e-05
2.00063e-05
2.02482e-05
2.02967e-05
2.01726e-05
1.98687e-05
1.93734e-05
1.88477e-05
1.87703e-05
2.013e-05
2.24918e-05
2.63896e-05
3.08843e-05
3.47243e-05
3.67185e-05
)
;

boundaryField
{
    low
    {
        type            calculated;
        value           uniform 0;
    }
    up
    {
        type            calculated;
        value           uniform 0;
    }
    left
    {
        type            calculated;
        value           uniform 0;
    }
    right
    {
        type            calculated;
        value           uniform 0;
    }
    frontAndBackPlanes
    {
        type            empty;
    }
}


// ************************************************************************* //
