/*--------------------------------*- C++ -*----------------------------------*\
  =========                 |
  \\      /  F ield         | OpenFOAM: The Open Source CFD Toolbox
   \\    /   O peration     | Website:  https://openfoam.org
    \\  /    A nd           | Version:  6
     \\/     M anipulation  |
\*---------------------------------------------------------------------------*/
FoamFile
{
    version     2.0;
    format      ascii;
    class       volScalarField;
    location    "0";
    object      Cx;
}
// * * * * * * * * * * * * * * * * * * * * * * * * * * * * * * * * * * * * * //

dimensions      [0 1 0 0 0 0 0];

internalField   nonuniform List<scalar> 
2500
(
-0.491505
-0.471443
-0.451382
-0.431321
-0.411259
-0.391198
-0.371136
-0.351075
-0.331013
-0.310952
-0.290891
-0.270829
-0.250768
-0.230706
-0.210645
-0.190584
-0.170522
-0.150461
-0.130399
-0.110338
-0.0902764
-0.070215
-0.0501536
-0.0300921
-0.0100307
0.0100307
0.0300921
0.0501536
0.070215
0.0902764
0.110338
0.130399
0.150461
0.170522
0.190584
0.210645
0.230706
0.250768
0.270829
0.290891
0.310952
0.331013
0.351075
0.371136
0.391198
0.411259
0.431321
0.451382
0.471443
0.491505
-0.494506
-0.474322
-0.454138
-0.433955
-0.413771
-0.393587
-0.373403
-0.353219
-0.333035
-0.312851
-0.292667
-0.272483
-0.252299
-0.232115
-0.211931
-0.191747
-0.171563
-0.151379
-0.131196
-0.111012
-0.0908277
-0.0706438
-0.0504598
-0.0302759
-0.010092
0.010092
0.0302759
0.0504598
0.0706438
0.0908277
0.111012
0.131196
0.151379
0.171563
0.191747
0.211931
0.232115
0.252299
0.272483
0.292667
0.312851
0.333035
0.353219
0.373403
0.393587
0.413771
0.433955
0.454138
0.474322
0.494506
-0.497492
-0.477187
-0.456881
-0.436575
-0.416269
-0.395963
-0.375657
-0.355352
-0.335046
-0.31474
-0.294434
-0.274128
-0.253823
-0.233517
-0.213211
-0.192905
-0.172599
-0.152294
-0.131988
-0.111682
-0.0913761
-0.0710703
-0.0507645
-0.0304587
-0.0101529
0.0101529
0.0304587
0.0507645
0.0710703
0.0913761
0.111682
0.131988
0.152294
0.172599
0.192905
0.213211
0.233517
0.253823
0.274128
0.294434
0.31474
0.335046
0.355352
0.375657
0.395963
0.416269
0.436575
0.456881
0.477187
0.497492
-0.500453
-0.480026
-0.459599
-0.439173
-0.418746
-0.398319
-0.377893
-0.357466
-0.337039
-0.316613
-0.296186
-0.27576
-0.255333
-0.234906
-0.21448
-0.194053
-0.173626
-0.1532
-0.132773
-0.112346
-0.0919199
-0.0714932
-0.0510666
-0.03064
-0.0102133
0.0102133
0.03064
0.0510666
0.0714932
0.0919199
0.112346
0.132773
0.1532
0.173626
0.194053
0.21448
0.234906
0.255333
0.27576
0.296186
0.316613
0.337039
0.357466
0.377893
0.398319
0.418746
0.439173
0.459599
0.480026
0.500453
-0.503377
-0.482831
-0.462285
-0.441739
-0.421193
-0.400647
-0.380101
-0.359555
-0.339009
-0.318463
-0.297917
-0.277371
-0.256825
-0.236279
-0.215733
-0.195187
-0.174641
-0.154095
-0.133549
-0.113003
-0.0924569
-0.0719109
-0.051365
-0.030819
-0.010273
0.010273
0.030819
0.051365
0.0719109
0.0924569
0.113003
0.133549
0.154095
0.174641
0.195187
0.215733
0.236279
0.256825
0.277371
0.297917
0.318463
0.339009
0.359555
0.380101
0.400647
0.421193
0.441739
0.462285
0.482831
0.503377
-0.506254
-0.485591
-0.464927
-0.444264
-0.4236
-0.402937
-0.382273
-0.36161
-0.340947
-0.320283
-0.29962
-0.278956
-0.258293
-0.237629
-0.216966
-0.196303
-0.175639
-0.154976
-0.134312
-0.113649
-0.0929854
-0.072322
-0.0516586
-0.0309951
-0.0103317
0.0103317
0.0309951
0.0516586
0.072322
0.0929854
0.113649
0.134312
0.154976
0.175639
0.196303
0.216966
0.237629
0.258293
0.278956
0.29962
0.320283
0.340947
0.36161
0.382273
0.402937
0.4236
0.444264
0.464927
0.485591
0.506254
-0.509074
-0.488296
-0.467517
-0.446739
-0.42596
-0.405182
-0.384403
-0.363625
-0.342846
-0.322068
-0.301289
-0.28051
-0.259732
-0.238953
-0.218175
-0.197396
-0.176618
-0.155839
-0.135061
-0.114282
-0.0935035
-0.0727249
-0.0519464
-0.0311678
-0.0103893
0.0103893
0.0311678
0.0519464
0.0727249
0.0935035
0.114282
0.135061
0.155839
0.176618
0.197396
0.218175
0.238953
0.259732
0.28051
0.301289
0.322068
0.342846
0.363625
0.384403
0.405182
0.42596
0.446739
0.467517
0.488296
0.509074
-0.511828
-0.490937
-0.470046
-0.449155
-0.428264
-0.407373
-0.386482
-0.365591
-0.3447
-0.323809
-0.302918
-0.282028
-0.261137
-0.240246
-0.219355
-0.198464
-0.177573
-0.156682
-0.135791
-0.1149
-0.0940092
-0.0731182
-0.0522273
-0.0313364
-0.0104455
0.0104455
0.0313364
0.0522273
0.0731182
0.0940092
0.1149
0.135791
0.156682
0.177573
0.198464
0.219355
0.240246
0.261137
0.282028
0.302918
0.323809
0.3447
0.365591
0.386482
0.407373
0.428264
0.449155
0.470046
0.490937
0.511828
-0.514503
-0.493503
-0.472503
-0.451503
-0.430503
-0.409503
-0.388502
-0.367502
-0.346502
-0.325502
-0.304502
-0.283502
-0.262502
-0.241502
-0.220501
-0.199501
-0.178501
-0.157501
-0.136501
-0.115501
-0.0945006
-0.0735005
-0.0525003
-0.0315002
-0.0105001
0.0105001
0.0315002
0.0525003
0.0735005
0.0945006
0.115501
0.136501
0.157501
0.178501
0.199501
0.220501
0.241502
0.262502
0.283502
0.304502
0.325502
0.346502
0.367502
0.388502
0.409503
0.430503
0.451503
0.472503
0.493503
0.514503
-0.517091
-0.495985
-0.474879
-0.453774
-0.432668
-0.411562
-0.390456
-0.369351
-0.348245
-0.327139
-0.306033
-0.284928
-0.263822
-0.242716
-0.22161
-0.200505
-0.179399
-0.158293
-0.137187
-0.116082
-0.0949759
-0.0738701
-0.0527644
-0.0316586
-0.0105529
0.0105529
0.0316586
0.0527644
0.0738701
0.0949759
0.116082
0.137187
0.158293
0.179399
0.200505
0.22161
0.242716
0.263822
0.284928
0.306033
0.327139
0.348245
0.369351
0.390456
0.411562
0.432668
0.453774
0.474879
0.495985
0.517091
-0.51958
-0.498373
-0.477165
-0.455958
-0.434751
-0.413543
-0.392336
-0.371129
-0.349921
-0.328714
-0.307507
-0.286299
-0.265092
-0.243885
-0.222677
-0.20147
-0.180263
-0.159055
-0.137848
-0.11664
-0.0954331
-0.0742257
-0.0530184
-0.031811
-0.0106037
0.0106037
0.031811
0.0530184
0.0742257
0.0954331
0.11664
0.137848
0.159055
0.180263
0.20147
0.222677
0.243885
0.265092
0.286299
0.307507
0.328714
0.349921
0.371129
0.392336
0.413543
0.434751
0.455958
0.477165
0.498373
0.51958
-0.521961
-0.500656
-0.479352
-0.458047
-0.436743
-0.415438
-0.394134
-0.372829
-0.351525
-0.33022
-0.308916
-0.287611
-0.266307
-0.245002
-0.223698
-0.202393
-0.181088
-0.159784
-0.138479
-0.117175
-0.0958704
-0.0745659
-0.0532613
-0.0319568
-0.0106523
0.0106523
0.0319568
0.0532613
0.0745659
0.0958704
0.117175
0.138479
0.159784
0.181088
0.202393
0.223698
0.245002
0.266307
0.287611
0.308916
0.33022
0.351525
0.372829
0.394134
0.415438
0.436743
0.458047
0.479352
0.500656
0.521961
-0.524223
-0.502826
-0.481429
-0.460033
-0.438636
-0.417239
-0.395842
-0.374445
-0.353048
-0.331651
-0.310255
-0.288858
-0.267461
-0.246064
-0.224667
-0.20327
-0.181873
-0.160476
-0.13908
-0.117683
-0.0962859
-0.074889
-0.0534922
-0.0320953
-0.0106984
0.0106984
0.0320953
0.0534922
0.074889
0.0962859
0.117683
0.13908
0.160476
0.181873
0.20327
0.224667
0.246064
0.267461
0.288858
0.310255
0.331651
0.353048
0.374445
0.395842
0.417239
0.438636
0.460033
0.481429
0.502826
0.524223
-0.526357
-0.504873
-0.483389
-0.461905
-0.440421
-0.418937
-0.397453
-0.375969
-0.354485
-0.333001
-0.311517
-0.290033
-0.268549
-0.247066
-0.225582
-0.204098
-0.182614
-0.16113
-0.139646
-0.118162
-0.0966778
-0.0751939
-0.0537099
-0.0322259
-0.010742
0.010742
0.0322259
0.0537099
0.0751939
0.0966778
0.118162
0.139646
0.16113
0.182614
0.204098
0.225582
0.247066
0.268549
0.290033
0.311517
0.333001
0.354485
0.375969
0.397453
0.418937
0.440421
0.461905
0.483389
0.504873
0.526357
-0.528353
-0.506787
-0.485222
-0.463657
-0.442091
-0.420526
-0.39896
-0.377395
-0.355829
-0.334264
-0.312699
-0.291133
-0.269568
-0.248002
-0.226437
-0.204871
-0.183306
-0.161741
-0.140175
-0.11861
-0.0970444
-0.075479
-0.0539135
-0.0323481
-0.0107827
0.0107827
0.0323481
0.0539135
0.075479
0.0970444
0.11861
0.140175
0.161741
0.183306
0.204871
0.226437
0.248002
0.269568
0.291133
0.312699
0.334264
0.355829
0.377395
0.39896
0.420526
0.442091
0.463657
0.485222
0.506787
0.528353
-0.530201
-0.50856
-0.486919
-0.465279
-0.443638
-0.421997
-0.400356
-0.378715
-0.357074
-0.335433
-0.313793
-0.292152
-0.270511
-0.24887
-0.227229
-0.205588
-0.183947
-0.162306
-0.140666
-0.119025
-0.0973839
-0.075743
-0.0541022
-0.0324613
-0.0108204
0.0108204
0.0324613
0.0541022
0.075743
0.0973839
0.119025
0.140666
0.162306
0.183947
0.205588
0.227229
0.24887
0.270511
0.292152
0.313793
0.335433
0.357074
0.378715
0.400356
0.421997
0.443638
0.465279
0.486919
0.50856
0.530201
-0.531893
-0.510183
-0.488473
-0.466764
-0.445054
-0.423344
-0.401634
-0.379924
-0.358214
-0.336504
-0.314794
-0.293084
-0.271374
-0.249664
-0.227954
-0.206244
-0.184534
-0.162824
-0.141115
-0.119405
-0.0976947
-0.0759848
-0.0542748
-0.0325649
-0.010855
0.010855
0.0325649
0.0542748
0.0759848
0.0976947
0.119405
0.141115
0.162824
0.184534
0.206244
0.227954
0.249664
0.271374
0.293084
0.314794
0.336504
0.358214
0.379924
0.401634
0.423344
0.445054
0.466764
0.488473
0.510183
0.531893
-0.533421
-0.511649
-0.489876
-0.468104
-0.446332
-0.424559
-0.402787
-0.381015
-0.359243
-0.33747
-0.315698
-0.293926
-0.272153
-0.250381
-0.228609
-0.206837
-0.185064
-0.163292
-0.14152
-0.119748
-0.0979753
-0.076203
-0.0544307
-0.0326584
-0.0108861
0.0108861
0.0326584
0.0544307
0.076203
0.0979753
0.119748
0.14152
0.163292
0.185064
0.206837
0.228609
0.250381
0.272153
0.293926
0.315698
0.33747
0.359243
0.381015
0.402787
0.424559
0.446332
0.468104
0.489876
0.511649
0.533421
-0.534776
-0.512948
-0.491121
-0.469293
-0.447466
-0.425638
-0.40381
-0.381983
-0.360155
-0.338328
-0.3165
-0.294672
-0.272845
-0.251017
-0.22919
-0.207362
-0.185535
-0.163707
-0.141879
-0.120052
-0.0982241
-0.0763966
-0.054569
-0.0327414
-0.0109138
0.0109138
0.0327414
0.054569
0.0763966
0.0982241
0.120052
0.141879
0.163707
0.185535
0.207362
0.22919
0.251017
0.272845
0.294672
0.3165
0.338328
0.360155
0.381983
0.40381
0.425638
0.447466
0.469293
0.491121
0.512948
0.534776
-0.535952
-0.514076
-0.4922
-0.470325
-0.448449
-0.426574
-0.404698
-0.382823
-0.360947
-0.339071
-0.317196
-0.29532
-0.273445
-0.251569
-0.229694
-0.207818
-0.185942
-0.164067
-0.142191
-0.120316
-0.0984401
-0.0765645
-0.0546889
-0.0328134
-0.0109378
0.0109378
0.0328134
0.0546889
0.0765645
0.0984401
0.120316
0.142191
0.164067
0.185942
0.207818
0.229694
0.251569
0.273445
0.29532
0.317196
0.339071
0.360947
0.382823
0.404698
0.426574
0.448449
0.470325
0.4922
0.514076
0.535952
-0.536941
-0.515025
-0.493109
-0.471193
-0.449277
-0.427361
-0.405445
-0.38353
-0.361614
-0.339698
-0.317782
-0.295866
-0.27395
-0.252034
-0.230118
-0.208202
-0.186286
-0.16437
-0.142454
-0.120538
-0.0986219
-0.0767059
-0.0547899
-0.032874
-0.010958
0.010958
0.032874
0.0547899
0.0767059
0.0986219
0.120538
0.142454
0.16437
0.186286
0.208202
0.230118
0.252034
0.27395
0.295866
0.317782
0.339698
0.361614
0.38353
0.405445
0.427361
0.449277
0.471193
0.493109
0.515025
0.536941
-0.53774
-0.515791
-0.493843
-0.471894
-0.449946
-0.427997
-0.406049
-0.3841
-0.362151
-0.340203
-0.318254
-0.296306
-0.274357
-0.252409
-0.23046
-0.208511
-0.186563
-0.164614
-0.142666
-0.120717
-0.0987686
-0.07682
-0.0548714
-0.0329229
-0.0109743
0.0109743
0.0329229
0.0548714
0.07682
0.0987686
0.120717
0.142666
0.164614
0.186563
0.208511
0.23046
0.252409
0.274357
0.296306
0.318254
0.340203
0.362151
0.3841
0.406049
0.427997
0.449946
0.471894
0.493843
0.515791
0.53774
-0.538343
-0.51637
-0.494397
-0.472423
-0.45045
-0.428477
-0.406504
-0.384531
-0.362557
-0.340584
-0.318611
-0.296638
-0.274665
-0.252692
-0.230718
-0.208745
-0.186772
-0.164799
-0.142826
-0.120852
-0.0988793
-0.0769061
-0.0549329
-0.0329598
-0.0109866
0.0109866
0.0329598
0.0549329
0.0769061
0.0988793
0.120852
0.142826
0.164799
0.186772
0.208745
0.230718
0.252692
0.274665
0.296638
0.318611
0.340584
0.362557
0.384531
0.406504
0.428477
0.45045
0.472423
0.494397
0.51637
0.538343
-0.538747
-0.516757
-0.494767
-0.472778
-0.450788
-0.428798
-0.406809
-0.384819
-0.362829
-0.34084
-0.31885
-0.29686
-0.274871
-0.252881
-0.230891
-0.208902
-0.186912
-0.164922
-0.142933
-0.120943
-0.0989535
-0.0769638
-0.0549742
-0.0329845
-0.0109948
0.0109948
0.0329845
0.0549742
0.0769638
0.0989535
0.120943
0.142933
0.164922
0.186912
0.208902
0.230891
0.252881
0.274871
0.29686
0.31885
0.34084
0.362829
0.384819
0.406809
0.428798
0.450788
0.472778
0.494767
0.516757
0.538747
-0.538949
-0.516951
-0.494953
-0.472955
-0.450958
-0.42896
-0.406962
-0.384964
-0.362966
-0.340968
-0.31897
-0.296972
-0.274974
-0.252976
-0.230978
-0.20898
-0.186982
-0.164984
-0.142987
-0.120989
-0.0989907
-0.0769928
-0.0549948
-0.0329969
-0.010999
0.010999
0.0329969
0.0549948
0.0769928
0.0989907
0.120989
0.142987
0.164984
0.186982
0.20898
0.230978
0.252976
0.274974
0.296972
0.31897
0.340968
0.362966
0.384964
0.406962
0.42896
0.450958
0.472955
0.494953
0.516951
0.538949
-0.538949
-0.516951
-0.494953
-0.472955
-0.450958
-0.42896
-0.406962
-0.384964
-0.362966
-0.340968
-0.31897
-0.296972
-0.274974
-0.252976
-0.230978
-0.20898
-0.186982
-0.164984
-0.142987
-0.120989
-0.0989907
-0.0769928
-0.0549948
-0.0329969
-0.010999
0.010999
0.0329969
0.0549948
0.0769928
0.0989907
0.120989
0.142987
0.164984
0.186982
0.20898
0.230978
0.252976
0.274974
0.296972
0.31897
0.340968
0.362966
0.384964
0.406962
0.42896
0.450958
0.472955
0.494953
0.516951
0.538949
-0.538747
-0.516757
-0.494767
-0.472778
-0.450788
-0.428798
-0.406809
-0.384819
-0.362829
-0.34084
-0.31885
-0.29686
-0.274871
-0.252881
-0.230891
-0.208902
-0.186912
-0.164922
-0.142933
-0.120943
-0.0989535
-0.0769638
-0.0549742
-0.0329845
-0.0109948
0.0109948
0.0329845
0.0549742
0.0769638
0.0989535
0.120943
0.142933
0.164922
0.186912
0.208902
0.230891
0.252881
0.274871
0.29686
0.31885
0.34084
0.362829
0.384819
0.406809
0.428798
0.450788
0.472778
0.494767
0.516757
0.538747
-0.538343
-0.51637
-0.494397
-0.472423
-0.45045
-0.428477
-0.406504
-0.384531
-0.362557
-0.340584
-0.318611
-0.296638
-0.274665
-0.252692
-0.230718
-0.208745
-0.186772
-0.164799
-0.142826
-0.120852
-0.0988793
-0.0769061
-0.0549329
-0.0329598
-0.0109866
0.0109866
0.0329598
0.0549329
0.0769061
0.0988793
0.120852
0.142826
0.164799
0.186772
0.208745
0.230718
0.252692
0.274665
0.296638
0.318611
0.340584
0.362557
0.384531
0.406504
0.428477
0.45045
0.472423
0.494397
0.51637
0.538343
-0.53774
-0.515791
-0.493843
-0.471894
-0.449946
-0.427997
-0.406049
-0.3841
-0.362151
-0.340203
-0.318254
-0.296306
-0.274357
-0.252409
-0.23046
-0.208511
-0.186563
-0.164614
-0.142666
-0.120717
-0.0987686
-0.07682
-0.0548714
-0.0329229
-0.0109743
0.0109743
0.0329229
0.0548714
0.07682
0.0987686
0.120717
0.142666
0.164614
0.186563
0.208511
0.23046
0.252409
0.274357
0.296306
0.318254
0.340203
0.362151
0.3841
0.406049
0.427997
0.449946
0.471894
0.493843
0.515791
0.53774
-0.536941
-0.515025
-0.493109
-0.471193
-0.449277
-0.427361
-0.405445
-0.38353
-0.361614
-0.339698
-0.317782
-0.295866
-0.27395
-0.252034
-0.230118
-0.208202
-0.186286
-0.16437
-0.142454
-0.120538
-0.0986219
-0.0767059
-0.0547899
-0.032874
-0.010958
0.010958
0.032874
0.0547899
0.0767059
0.0986219
0.120538
0.142454
0.16437
0.186286
0.208202
0.230118
0.252034
0.27395
0.295866
0.317782
0.339698
0.361614
0.38353
0.405445
0.427361
0.449277
0.471193
0.493109
0.515025
0.536941
-0.535952
-0.514076
-0.4922
-0.470325
-0.448449
-0.426574
-0.404698
-0.382823
-0.360947
-0.339071
-0.317196
-0.29532
-0.273445
-0.251569
-0.229694
-0.207818
-0.185942
-0.164067
-0.142191
-0.120316
-0.0984401
-0.0765645
-0.0546889
-0.0328134
-0.0109378
0.0109378
0.0328134
0.0546889
0.0765645
0.0984401
0.120316
0.142191
0.164067
0.185942
0.207818
0.229694
0.251569
0.273445
0.29532
0.317196
0.339071
0.360947
0.382823
0.404698
0.426574
0.448449
0.470325
0.4922
0.514076
0.535952
-0.534776
-0.512948
-0.491121
-0.469293
-0.447466
-0.425638
-0.40381
-0.381983
-0.360155
-0.338328
-0.3165
-0.294672
-0.272845
-0.251017
-0.22919
-0.207362
-0.185535
-0.163707
-0.141879
-0.120052
-0.0982241
-0.0763966
-0.054569
-0.0327414
-0.0109138
0.0109138
0.0327414
0.054569
0.0763966
0.0982241
0.120052
0.141879
0.163707
0.185535
0.207362
0.22919
0.251017
0.272845
0.294672
0.3165
0.338328
0.360155
0.381983
0.40381
0.425638
0.447466
0.469293
0.491121
0.512948
0.534776
-0.533421
-0.511649
-0.489876
-0.468104
-0.446332
-0.424559
-0.402787
-0.381015
-0.359243
-0.33747
-0.315698
-0.293926
-0.272153
-0.250381
-0.228609
-0.206837
-0.185064
-0.163292
-0.14152
-0.119748
-0.0979753
-0.076203
-0.0544307
-0.0326584
-0.0108861
0.0108861
0.0326584
0.0544307
0.076203
0.0979753
0.119748
0.14152
0.163292
0.185064
0.206837
0.228609
0.250381
0.272153
0.293926
0.315698
0.33747
0.359243
0.381015
0.402787
0.424559
0.446332
0.468104
0.489876
0.511649
0.533421
-0.531893
-0.510183
-0.488473
-0.466764
-0.445054
-0.423344
-0.401634
-0.379924
-0.358214
-0.336504
-0.314794
-0.293084
-0.271374
-0.249664
-0.227954
-0.206244
-0.184534
-0.162824
-0.141115
-0.119405
-0.0976947
-0.0759848
-0.0542748
-0.0325649
-0.010855
0.010855
0.0325649
0.0542748
0.0759848
0.0976947
0.119405
0.141115
0.162824
0.184534
0.206244
0.227954
0.249664
0.271374
0.293084
0.314794
0.336504
0.358214
0.379924
0.401634
0.423344
0.445054
0.466764
0.488473
0.510183
0.531893
-0.530201
-0.50856
-0.486919
-0.465279
-0.443638
-0.421997
-0.400356
-0.378715
-0.357074
-0.335433
-0.313793
-0.292152
-0.270511
-0.24887
-0.227229
-0.205588
-0.183947
-0.162306
-0.140666
-0.119025
-0.0973839
-0.075743
-0.0541022
-0.0324613
-0.0108204
0.0108204
0.0324613
0.0541022
0.075743
0.0973839
0.119025
0.140666
0.162306
0.183947
0.205588
0.227229
0.24887
0.270511
0.292152
0.313793
0.335433
0.357074
0.378715
0.400356
0.421997
0.443638
0.465279
0.486919
0.50856
0.530201
-0.528353
-0.506787
-0.485222
-0.463657
-0.442091
-0.420526
-0.39896
-0.377395
-0.355829
-0.334264
-0.312699
-0.291133
-0.269568
-0.248002
-0.226437
-0.204871
-0.183306
-0.161741
-0.140175
-0.11861
-0.0970444
-0.075479
-0.0539135
-0.0323481
-0.0107827
0.0107827
0.0323481
0.0539135
0.075479
0.0970444
0.11861
0.140175
0.161741
0.183306
0.204871
0.226437
0.248002
0.269568
0.291133
0.312699
0.334264
0.355829
0.377395
0.39896
0.420526
0.442091
0.463657
0.485222
0.506787
0.528353
-0.526357
-0.504873
-0.483389
-0.461905
-0.440421
-0.418937
-0.397453
-0.375969
-0.354485
-0.333001
-0.311517
-0.290033
-0.268549
-0.247066
-0.225582
-0.204098
-0.182614
-0.16113
-0.139646
-0.118162
-0.0966778
-0.0751939
-0.0537099
-0.0322259
-0.010742
0.010742
0.0322259
0.0537099
0.0751939
0.0966778
0.118162
0.139646
0.16113
0.182614
0.204098
0.225582
0.247066
0.268549
0.290033
0.311517
0.333001
0.354485
0.375969
0.397453
0.418937
0.440421
0.461905
0.483389
0.504873
0.526357
-0.524223
-0.502826
-0.481429
-0.460033
-0.438636
-0.417239
-0.395842
-0.374445
-0.353048
-0.331651
-0.310255
-0.288858
-0.267461
-0.246064
-0.224667
-0.20327
-0.181873
-0.160476
-0.13908
-0.117683
-0.0962859
-0.074889
-0.0534922
-0.0320953
-0.0106984
0.0106984
0.0320953
0.0534922
0.074889
0.0962859
0.117683
0.13908
0.160476
0.181873
0.20327
0.224667
0.246064
0.267461
0.288858
0.310255
0.331651
0.353048
0.374445
0.395842
0.417239
0.438636
0.460033
0.481429
0.502826
0.524223
-0.521961
-0.500656
-0.479352
-0.458047
-0.436743
-0.415438
-0.394134
-0.372829
-0.351525
-0.33022
-0.308916
-0.287611
-0.266307
-0.245002
-0.223698
-0.202393
-0.181088
-0.159784
-0.138479
-0.117175
-0.0958704
-0.0745659
-0.0532613
-0.0319568
-0.0106523
0.0106523
0.0319568
0.0532613
0.0745659
0.0958704
0.117175
0.138479
0.159784
0.181088
0.202393
0.223698
0.245002
0.266307
0.287611
0.308916
0.33022
0.351525
0.372829
0.394134
0.415438
0.436743
0.458047
0.479352
0.500656
0.521961
-0.51958
-0.498373
-0.477165
-0.455958
-0.434751
-0.413543
-0.392336
-0.371129
-0.349921
-0.328714
-0.307507
-0.286299
-0.265092
-0.243885
-0.222677
-0.20147
-0.180263
-0.159055
-0.137848
-0.11664
-0.0954331
-0.0742257
-0.0530184
-0.031811
-0.0106037
0.0106037
0.031811
0.0530184
0.0742257
0.0954331
0.11664
0.137848
0.159055
0.180263
0.20147
0.222677
0.243885
0.265092
0.286299
0.307507
0.328714
0.349921
0.371129
0.392336
0.413543
0.434751
0.455958
0.477165
0.498373
0.51958
-0.517091
-0.495985
-0.474879
-0.453774
-0.432668
-0.411562
-0.390456
-0.369351
-0.348245
-0.327139
-0.306033
-0.284928
-0.263822
-0.242716
-0.22161
-0.200505
-0.179399
-0.158293
-0.137187
-0.116082
-0.0949759
-0.0738701
-0.0527644
-0.0316586
-0.0105529
0.0105529
0.0316586
0.0527644
0.0738701
0.0949759
0.116082
0.137187
0.158293
0.179399
0.200505
0.22161
0.242716
0.263822
0.284928
0.306033
0.327139
0.348245
0.369351
0.390456
0.411562
0.432668
0.453774
0.474879
0.495985
0.517091
-0.514503
-0.493503
-0.472503
-0.451503
-0.430503
-0.409503
-0.388502
-0.367502
-0.346502
-0.325502
-0.304502
-0.283502
-0.262502
-0.241502
-0.220501
-0.199501
-0.178501
-0.157501
-0.136501
-0.115501
-0.0945006
-0.0735005
-0.0525003
-0.0315002
-0.0105001
0.0105001
0.0315002
0.0525003
0.0735005
0.0945006
0.115501
0.136501
0.157501
0.178501
0.199501
0.220501
0.241502
0.262502
0.283502
0.304502
0.325502
0.346502
0.367502
0.388502
0.409503
0.430503
0.451503
0.472503
0.493503
0.514503
-0.511828
-0.490937
-0.470046
-0.449155
-0.428264
-0.407373
-0.386482
-0.365591
-0.3447
-0.323809
-0.302918
-0.282028
-0.261137
-0.240246
-0.219355
-0.198464
-0.177573
-0.156682
-0.135791
-0.1149
-0.0940092
-0.0731182
-0.0522273
-0.0313364
-0.0104455
0.0104455
0.0313364
0.0522273
0.0731182
0.0940092
0.1149
0.135791
0.156682
0.177573
0.198464
0.219355
0.240246
0.261137
0.282028
0.302918
0.323809
0.3447
0.365591
0.386482
0.407373
0.428264
0.449155
0.470046
0.490937
0.511828
-0.509074
-0.488296
-0.467517
-0.446739
-0.42596
-0.405182
-0.384403
-0.363625
-0.342846
-0.322068
-0.301289
-0.28051
-0.259732
-0.238953
-0.218175
-0.197396
-0.176618
-0.155839
-0.135061
-0.114282
-0.0935035
-0.0727249
-0.0519464
-0.0311678
-0.0103893
0.0103893
0.0311678
0.0519464
0.0727249
0.0935035
0.114282
0.135061
0.155839
0.176618
0.197396
0.218175
0.238953
0.259732
0.28051
0.301289
0.322068
0.342846
0.363625
0.384403
0.405182
0.42596
0.446739
0.467517
0.488296
0.509074
-0.506254
-0.485591
-0.464927
-0.444264
-0.4236
-0.402937
-0.382273
-0.36161
-0.340947
-0.320283
-0.29962
-0.278956
-0.258293
-0.237629
-0.216966
-0.196303
-0.175639
-0.154976
-0.134312
-0.113649
-0.0929854
-0.072322
-0.0516586
-0.0309951
-0.0103317
0.0103317
0.0309951
0.0516586
0.072322
0.0929854
0.113649
0.134312
0.154976
0.175639
0.196303
0.216966
0.237629
0.258293
0.278956
0.29962
0.320283
0.340947
0.36161
0.382273
0.402937
0.4236
0.444264
0.464927
0.485591
0.506254
-0.503377
-0.482831
-0.462285
-0.441739
-0.421193
-0.400647
-0.380101
-0.359555
-0.339009
-0.318463
-0.297917
-0.277371
-0.256825
-0.236279
-0.215733
-0.195187
-0.174641
-0.154095
-0.133549
-0.113003
-0.0924569
-0.0719109
-0.051365
-0.030819
-0.010273
0.010273
0.030819
0.051365
0.0719109
0.0924569
0.113003
0.133549
0.154095
0.174641
0.195187
0.215733
0.236279
0.256825
0.277371
0.297917
0.318463
0.339009
0.359555
0.380101
0.400647
0.421193
0.441739
0.462285
0.482831
0.503377
-0.500453
-0.480026
-0.459599
-0.439173
-0.418746
-0.398319
-0.377893
-0.357466
-0.337039
-0.316613
-0.296186
-0.27576
-0.255333
-0.234906
-0.21448
-0.194053
-0.173626
-0.1532
-0.132773
-0.112346
-0.0919199
-0.0714932
-0.0510666
-0.03064
-0.0102133
0.0102133
0.03064
0.0510666
0.0714932
0.0919199
0.112346
0.132773
0.1532
0.173626
0.194053
0.21448
0.234906
0.255333
0.27576
0.296186
0.316613
0.337039
0.357466
0.377893
0.398319
0.418746
0.439173
0.459599
0.480026
0.500453
-0.497492
-0.477187
-0.456881
-0.436575
-0.416269
-0.395963
-0.375657
-0.355352
-0.335046
-0.31474
-0.294434
-0.274128
-0.253823
-0.233517
-0.213211
-0.192905
-0.172599
-0.152294
-0.131988
-0.111682
-0.0913761
-0.0710703
-0.0507645
-0.0304587
-0.0101529
0.0101529
0.0304587
0.0507645
0.0710703
0.0913761
0.111682
0.131988
0.152294
0.172599
0.192905
0.213211
0.233517
0.253823
0.274128
0.294434
0.31474
0.335046
0.355352
0.375657
0.395963
0.416269
0.436575
0.456881
0.477187
0.497492
-0.494506
-0.474322
-0.454138
-0.433955
-0.413771
-0.393587
-0.373403
-0.353219
-0.333035
-0.312851
-0.292667
-0.272483
-0.252299
-0.232115
-0.211931
-0.191747
-0.171563
-0.151379
-0.131196
-0.111012
-0.0908277
-0.0706438
-0.0504598
-0.0302759
-0.010092
0.010092
0.0302759
0.0504598
0.0706438
0.0908277
0.111012
0.131196
0.151379
0.171563
0.191747
0.211931
0.232115
0.252299
0.272483
0.292667
0.312851
0.333035
0.353219
0.373403
0.393587
0.413771
0.433955
0.454138
0.474322
0.494506
-0.491505
-0.471443
-0.451382
-0.431321
-0.411259
-0.391198
-0.371136
-0.351075
-0.331013
-0.310952
-0.290891
-0.270829
-0.250768
-0.230706
-0.210645
-0.190584
-0.170522
-0.150461
-0.130399
-0.110338
-0.0902764
-0.070215
-0.0501536
-0.0300921
-0.0100307
0.0100307
0.0300921
0.0501536
0.070215
0.0902764
0.110338
0.130399
0.150461
0.170522
0.190584
0.210645
0.230706
0.250768
0.270829
0.290891
0.310952
0.331013
0.351075
0.371136
0.391198
0.411259
0.431321
0.451382
0.471443
0.491505
)
;

boundaryField
{
    left
    {
        type            calculated;
        value           nonuniform List<scalar> 
50
(
-0.501534
-0.504597
-0.507644
-0.510664
-0.513648
-0.516584
-0.519462
-0.522272
-0.525002
-0.527643
-0.530183
-0.532612
-0.534921
-0.537098
-0.539135
-0.541021
-0.542748
-0.544307
-0.545689
-0.546889
-0.547899
-0.548714
-0.549329
-0.549742
-0.549948
-0.549948
-0.549742
-0.549329
-0.548714
-0.547899
-0.546889
-0.545689
-0.544307
-0.542748
-0.541021
-0.539135
-0.537098
-0.534921
-0.532612
-0.530183
-0.527643
-0.525002
-0.522272
-0.519462
-0.516584
-0.513648
-0.510664
-0.507644
-0.504597
-0.501534
)
;
    }
    right
    {
        type            calculated;
        value           nonuniform List<scalar> 
50
(
0.501534
0.504597
0.507644
0.510664
0.513648
0.516584
0.519462
0.522272
0.525002
0.527643
0.530183
0.532612
0.534921
0.537098
0.539135
0.541021
0.542748
0.544307
0.545689
0.546889
0.547899
0.548714
0.549329
0.549742
0.549948
0.549948
0.549742
0.549329
0.548714
0.547899
0.546889
0.545689
0.544307
0.542748
0.541021
0.539135
0.537098
0.534921
0.532612
0.530183
0.527643
0.525002
0.522272
0.519462
0.516584
0.513648
0.510664
0.507644
0.504597
0.501534
)
;
    }
    up
    {
        type            calculated;
        value           nonuniform List<scalar> 
50
(
-0.49
-0.47
-0.45
-0.43
-0.41
-0.39
-0.37
-0.35
-0.33
-0.31
-0.29
-0.27
-0.25
-0.23
-0.21
-0.19
-0.17
-0.15
-0.13
-0.11
-0.09
-0.07
-0.05
-0.03
-0.01
0.01
0.03
0.05
0.07
0.09
0.11
0.13
0.15
0.17
0.19
0.21
0.23
0.25
0.27
0.29
0.31
0.33
0.35
0.37
0.39
0.41
0.43
0.45
0.47
0.49
)
;
    }
    down
    {
        type            calculated;
        value           nonuniform List<scalar> 
50
(
-0.49
-0.47
-0.45
-0.43
-0.41
-0.39
-0.37
-0.35
-0.33
-0.31
-0.29
-0.27
-0.25
-0.23
-0.21
-0.19
-0.17
-0.15
-0.13
-0.11
-0.09
-0.07
-0.05
-0.03
-0.01
0.01
0.03
0.05
0.07
0.09
0.11
0.13
0.15
0.17
0.19
0.21
0.23
0.25
0.27
0.29
0.31
0.33
0.35
0.37
0.39
0.41
0.43
0.45
0.47
0.49
)
;
    }
    frontAndBack
    {
        type            empty;
    }
}


// ************************************************************************* //
