/*--------------------------------*- C++ -*----------------------------------*\
  =========                 |
  \\      /  F ield         | OpenFOAM: The Open Source CFD Toolbox
   \\    /   O peration     | Website:  https://openfoam.org
    \\  /    A nd           | Version:  6
     \\/     M anipulation  |
\*---------------------------------------------------------------------------*/
FoamFile
{
    version     2.0;
    format      ascii;
    class       volScalarField;
    location    "3200";
    object      Cx;
}
// * * * * * * * * * * * * * * * * * * * * * * * * * * * * * * * * * * * * * //

dimensions      [0 1 0 0 0 0 0];

internalField   nonuniform List<scalar> 
2500
(
-0.49
-0.47
-0.45
-0.43
-0.41
-0.39
-0.37
-0.35
-0.33
-0.31
-0.29
-0.27
-0.25
-0.23
-0.21
-0.19
-0.17
-0.15
-0.13
-0.11
-0.09
-0.07
-0.05
-0.03
-0.01
0.01
0.03
0.05
0.07
0.09
0.11
0.13
0.15
0.17
0.19
0.21
0.23
0.25
0.27
0.29
0.31
0.33
0.35
0.37
0.39
0.41
0.43
0.45
0.47
0.49
-0.49
-0.47
-0.45
-0.43
-0.41
-0.39
-0.37
-0.35
-0.33
-0.31
-0.29
-0.27
-0.25
-0.23
-0.21
-0.19
-0.17
-0.15
-0.13
-0.11
-0.09
-0.07
-0.05
-0.03
-0.01
0.01
0.03
0.05
0.07
0.09
0.11
0.13
0.15
0.17
0.19
0.21
0.23
0.25
0.27
0.29
0.31
0.33
0.35
0.37
0.39
0.41
0.43
0.45
0.47
0.49
-0.49
-0.47
-0.45
-0.43
-0.41
-0.39
-0.37
-0.35
-0.33
-0.31
-0.29
-0.27
-0.25
-0.23
-0.21
-0.19
-0.17
-0.15
-0.13
-0.11
-0.09
-0.07
-0.05
-0.03
-0.01
0.01
0.03
0.05
0.07
0.09
0.11
0.13
0.15
0.17
0.19
0.21
0.23
0.25
0.27
0.29
0.31
0.33
0.35
0.37
0.39
0.41
0.43
0.45
0.47
0.49
-0.49
-0.47
-0.45
-0.43
-0.41
-0.39
-0.37
-0.35
-0.33
-0.31
-0.29
-0.27
-0.25
-0.23
-0.21
-0.19
-0.17
-0.15
-0.13
-0.11
-0.09
-0.07
-0.05
-0.03
-0.01
0.01
0.03
0.05
0.07
0.09
0.11
0.13
0.15
0.17
0.19
0.21
0.23
0.25
0.27
0.29
0.31
0.33
0.35
0.37
0.39
0.41
0.43
0.45
0.47
0.49
-0.49
-0.47
-0.45
-0.43
-0.41
-0.39
-0.37
-0.35
-0.33
-0.31
-0.29
-0.27
-0.25
-0.23
-0.21
-0.19
-0.17
-0.15
-0.13
-0.11
-0.09
-0.07
-0.05
-0.03
-0.01
0.01
0.03
0.05
0.07
0.09
0.11
0.13
0.15
0.17
0.19
0.21
0.23
0.25
0.27
0.29
0.31
0.33
0.35
0.37
0.39
0.41
0.43
0.45
0.47
0.49
-0.49
-0.47
-0.45
-0.43
-0.41
-0.39
-0.37
-0.35
-0.33
-0.31
-0.29
-0.27
-0.25
-0.23
-0.21
-0.19
-0.17
-0.15
-0.13
-0.11
-0.09
-0.07
-0.05
-0.03
-0.01
0.01
0.03
0.05
0.07
0.09
0.11
0.13
0.15
0.17
0.19
0.21
0.23
0.25
0.27
0.29
0.31
0.33
0.35
0.37
0.39
0.41
0.43
0.45
0.47
0.49
-0.49
-0.47
-0.45
-0.43
-0.41
-0.39
-0.37
-0.35
-0.33
-0.31
-0.29
-0.27
-0.25
-0.23
-0.21
-0.19
-0.17
-0.15
-0.13
-0.11
-0.09
-0.07
-0.05
-0.03
-0.01
0.01
0.03
0.05
0.07
0.09
0.11
0.13
0.15
0.17
0.19
0.21
0.23
0.25
0.27
0.29
0.31
0.33
0.35
0.37
0.39
0.41
0.43
0.45
0.47
0.49
-0.49
-0.47
-0.45
-0.43
-0.41
-0.39
-0.37
-0.35
-0.33
-0.31
-0.29
-0.27
-0.25
-0.23
-0.21
-0.19
-0.17
-0.15
-0.13
-0.11
-0.09
-0.07
-0.05
-0.03
-0.01
0.01
0.03
0.05
0.07
0.09
0.11
0.13
0.15
0.17
0.19
0.21
0.23
0.25
0.27
0.29
0.31
0.33
0.35
0.37
0.39
0.41
0.43
0.45
0.47
0.49
-0.49
-0.47
-0.45
-0.43
-0.41
-0.39
-0.37
-0.35
-0.33
-0.31
-0.29
-0.27
-0.25
-0.23
-0.21
-0.19
-0.17
-0.15
-0.13
-0.11
-0.09
-0.07
-0.05
-0.03
-0.01
0.01
0.03
0.05
0.07
0.09
0.11
0.13
0.15
0.17
0.19
0.21
0.23
0.25
0.27
0.29
0.31
0.33
0.35
0.37
0.39
0.41
0.43
0.45
0.47
0.49
-0.489803
-0.469811
-0.449819
-0.429827
-0.409835
-0.389843
-0.369851
-0.349859
-0.329868
-0.309876
-0.289884
-0.269892
-0.2499
-0.229908
-0.209916
-0.189924
-0.169932
-0.14994
-0.129948
-0.109956
-0.0899639
-0.0699719
-0.0499799
-0.029988
-0.00999599
0.00999599
0.029988
0.0499799
0.0699719
0.0899639
0.109956
0.129948
0.14994
0.169932
0.189924
0.209916
0.229908
0.2499
0.269892
0.289884
0.309876
0.329868
0.349859
0.369851
0.389843
0.409835
0.429827
0.449819
0.469811
0.489803
-0.492315
-0.472221
-0.452126
-0.432032
-0.411937
-0.391843
-0.371748
-0.351654
-0.331559
-0.311465
-0.29137
-0.271276
-0.251181
-0.231087
-0.210992
-0.190898
-0.170803
-0.150709
-0.130614
-0.11052
-0.0904253
-0.0703308
-0.0502363
-0.0301418
-0.0100473
0.0100473
0.0301418
0.0502363
0.0703308
0.0904253
0.11052
0.130614
0.150709
0.170803
0.190898
0.210992
0.231087
0.251181
0.271276
0.29137
0.311465
0.331559
0.351654
0.371748
0.391843
0.411937
0.432032
0.452126
0.472221
0.492315
-0.503563
-0.483009
-0.462456
-0.441902
-0.421348
-0.400795
-0.380241
-0.359688
-0.339134
-0.318581
-0.298027
-0.277473
-0.25692
-0.236366
-0.215813
-0.195259
-0.174705
-0.154152
-0.133598
-0.113045
-0.0924911
-0.0719375
-0.051384
-0.0308304
-0.0102768
0.0102768
0.0308304
0.051384
0.0719375
0.0924911
0.113045
0.133598
0.154152
0.174705
0.195259
0.215813
0.236366
0.25692
0.277473
0.298027
0.318581
0.339134
0.359688
0.380241
0.400795
0.421348
0.441902
0.462456
0.483009
0.503563
-0.5212
-0.499926
-0.478653
-0.457379
-0.436106
-0.414832
-0.393559
-0.372285
-0.351012
-0.329739
-0.308465
-0.287192
-0.265918
-0.244645
-0.223371
-0.202098
-0.180824
-0.159551
-0.138277
-0.117004
-0.0957306
-0.0744571
-0.0531836
-0.0319102
-0.0106367
0.0106367
0.0319102
0.0531836
0.0744571
0.0957306
0.117004
0.138277
0.159551
0.180824
0.202098
0.223371
0.244645
0.265918
0.287192
0.308465
0.329739
0.351012
0.372285
0.393559
0.414832
0.436106
0.457379
0.478653
0.499926
0.5212
-0.539072
-0.517069
-0.495066
-0.473063
-0.45106
-0.429057
-0.407054
-0.385051
-0.363048
-0.341045
-0.319043
-0.29704
-0.275037
-0.253034
-0.231031
-0.209028
-0.187025
-0.165022
-0.143019
-0.121016
-0.0990132
-0.0770103
-0.0550073
-0.0330044
-0.0110015
0.0110015
0.0330044
0.0550073
0.0770103
0.0990132
0.121016
0.143019
0.165022
0.187025
0.209028
0.231031
0.253034
0.275037
0.29704
0.319043
0.341045
0.363048
0.385051
0.407054
0.429057
0.45106
0.473063
0.495066
0.517069
0.539072
-0.556458
-0.533745
-0.511033
-0.48832
-0.465607
-0.442895
-0.420182
-0.39747
-0.374757
-0.352045
-0.329332
-0.30662
-0.283907
-0.261194
-0.238482
-0.215769
-0.193057
-0.170344
-0.147632
-0.124919
-0.102207
-0.079494
-0.0567814
-0.0340688
-0.0113563
0.0113563
0.0340688
0.0567814
0.079494
0.102207
0.124919
0.147632
0.170344
0.193057
0.215769
0.238482
0.261194
0.283907
0.30662
0.329332
0.352045
0.374757
0.39747
0.420182
0.442895
0.465607
0.48832
0.511033
0.533745
0.556458
-0.573631
-0.550217
-0.526804
-0.50339
-0.479977
-0.456563
-0.43315
-0.409736
-0.386323
-0.362909
-0.339496
-0.316082
-0.292669
-0.269255
-0.245842
-0.222428
-0.199015
-0.175601
-0.152188
-0.128774
-0.105361
-0.0819473
-0.0585338
-0.0351203
-0.0117068
0.0117068
0.0351203
0.0585338
0.0819473
0.105361
0.128774
0.152188
0.175601
0.199015
0.222428
0.245842
0.269255
0.292669
0.316082
0.339496
0.362909
0.386323
0.409736
0.43315
0.456563
0.479977
0.50339
0.526804
0.550217
0.573631
-0.590484
-0.566383
-0.542281
-0.51818
-0.494079
-0.469977
-0.445876
-0.421774
-0.397673
-0.373572
-0.34947
-0.325369
-0.301267
-0.277166
-0.253065
-0.228963
-0.204862
-0.18076
-0.156659
-0.132558
-0.108456
-0.0843549
-0.0602535
-0.0361521
-0.0120507
0.0120507
0.0361521
0.0602535
0.0843549
0.108456
0.132558
0.156659
0.18076
0.204862
0.228963
0.253065
0.277166
0.301267
0.325369
0.34947
0.373572
0.397673
0.421774
0.445876
0.469977
0.494079
0.51818
0.542281
0.566383
0.590484
-0.606846
-0.582076
-0.557307
-0.532538
-0.507769
-0.483
-0.45823
-0.433461
-0.408692
-0.383923
-0.359154
-0.334384
-0.309615
-0.284846
-0.260077
-0.235307
-0.210538
-0.185769
-0.161
-0.136231
-0.111461
-0.0866922
-0.061923
-0.0371538
-0.0123846
0.0123846
0.0371538
0.061923
0.0866922
0.111461
0.136231
0.161
0.185769
0.210538
0.235307
0.260077
0.284846
0.309615
0.334384
0.359154
0.383923
0.408692
0.433461
0.45823
0.483
0.507769
0.532538
0.557307
0.582076
0.606846
-0.622564
-0.597153
-0.571742
-0.546331
-0.520921
-0.49551
-0.470099
-0.444688
-0.419278
-0.393867
-0.368456
-0.343045
-0.317635
-0.292224
-0.266813
-0.241402
-0.215992
-0.190581
-0.16517
-0.139759
-0.114348
-0.0889377
-0.0635269
-0.0381161
-0.0127054
0.0127054
0.0381161
0.0635269
0.0889377
0.114348
0.139759
0.16517
0.190581
0.215992
0.241402
0.266813
0.292224
0.317635
0.343045
0.368456
0.393867
0.419278
0.444688
0.470099
0.49551
0.520921
0.546331
0.571742
0.597153
0.622564
-0.637442
-0.611424
-0.585406
-0.559388
-0.53337
-0.507352
-0.481334
-0.455315
-0.429297
-0.403279
-0.377261
-0.351243
-0.325225
-0.299207
-0.273189
-0.247171
-0.221153
-0.195135
-0.169117
-0.143099
-0.117081
-0.0910631
-0.0650451
-0.039027
-0.013009
0.013009
0.039027
0.0650451
0.0910631
0.117081
0.143099
0.169117
0.195135
0.221153
0.247171
0.273189
0.299207
0.325225
0.351243
0.377261
0.403279
0.429297
0.455315
0.481334
0.507352
0.53337
0.559388
0.585406
0.611424
0.637442
-0.651204
-0.624624
-0.598044
-0.571465
-0.544885
-0.518305
-0.491725
-0.465146
-0.438566
-0.411986
-0.385406
-0.358827
-0.332247
-0.305667
-0.279087
-0.252508
-0.225928
-0.199348
-0.172768
-0.146189
-0.119609
-0.0930291
-0.0664494
-0.0398696
-0.0132899
0.0132899
0.0398696
0.0664494
0.0930291
0.119609
0.146189
0.172768
0.199348
0.225928
0.252508
0.279087
0.305667
0.332247
0.358827
0.385406
0.411986
0.438566
0.465146
0.491725
0.518305
0.544885
0.571465
0.598044
0.624624
0.651204
-0.663453
-0.636373
-0.609293
-0.582214
-0.555134
-0.528054
-0.500975
-0.473895
-0.446815
-0.419735
-0.392656
-0.365576
-0.338496
-0.311417
-0.284337
-0.257257
-0.230177
-0.203098
-0.176018
-0.148938
-0.121859
-0.094779
-0.0676993
-0.0406196
-0.0135399
0.0135399
0.0406196
0.0676993
0.094779
0.121859
0.148938
0.176018
0.203098
0.230177
0.257257
0.284337
0.311417
0.338496
0.365576
0.392656
0.419735
0.446815
0.473895
0.500975
0.528054
0.555134
0.582214
0.609293
0.636373
0.663453
-0.673632
-0.646137
-0.618642
-0.591147
-0.563652
-0.536156
-0.508661
-0.481166
-0.453671
-0.426176
-0.39868
-0.371185
-0.34369
-0.316195
-0.2887
-0.261204
-0.233709
-0.206214
-0.178719
-0.151224
-0.123728
-0.0962332
-0.068738
-0.0412428
-0.0137476
0.0137476
0.0412428
0.068738
0.0962332
0.123728
0.151224
0.178719
0.206214
0.233709
0.261204
0.2887
0.316195
0.34369
0.371185
0.39868
0.426176
0.453671
0.481166
0.508661
0.536156
0.563652
0.591147
0.618642
0.646137
0.673632
-0.681044
-0.653246
-0.625448
-0.597651
-0.569853
-0.542055
-0.514257
-0.48646
-0.458662
-0.430864
-0.403067
-0.375269
-0.347471
-0.319674
-0.291876
-0.264078
-0.23628
-0.208483
-0.180685
-0.152887
-0.12509
-0.097292
-0.0694943
-0.0416966
-0.0138989
0.0138989
0.0416966
0.0694943
0.097292
0.12509
0.152887
0.180685
0.208483
0.23628
0.264078
0.291876
0.319674
0.347471
0.375269
0.403067
0.430864
0.458662
0.48646
0.514257
0.542055
0.569853
0.597651
0.625448
0.653246
0.681044
-0.684981
-0.657022
-0.629064
-0.601105
-0.573147
-0.545189
-0.51723
-0.489272
-0.461314
-0.433355
-0.405397
-0.377438
-0.34948
-0.321522
-0.293563
-0.265605
-0.237646
-0.209688
-0.18173
-0.153771
-0.125813
-0.0978544
-0.069896
-0.0419376
-0.0139792
0.0139792
0.0419376
0.069896
0.0978544
0.125813
0.153771
0.18173
0.209688
0.237646
0.265605
0.293563
0.321522
0.34948
0.377438
0.405397
0.433355
0.461314
0.489272
0.51723
0.545189
0.573147
0.601105
0.629064
0.657022
0.684981
-0.684981
-0.657022
-0.629064
-0.601105
-0.573147
-0.545189
-0.51723
-0.489272
-0.461314
-0.433355
-0.405397
-0.377438
-0.34948
-0.321522
-0.293563
-0.265605
-0.237646
-0.209688
-0.18173
-0.153771
-0.125813
-0.0978544
-0.069896
-0.0419376
-0.0139792
0.0139792
0.0419376
0.069896
0.0978544
0.125813
0.153771
0.18173
0.209688
0.237646
0.265605
0.293563
0.321522
0.34948
0.377438
0.405397
0.433355
0.461314
0.489272
0.51723
0.545189
0.573147
0.601105
0.629064
0.657022
0.684981
-0.681044
-0.653246
-0.625448
-0.597651
-0.569853
-0.542055
-0.514257
-0.48646
-0.458662
-0.430864
-0.403067
-0.375269
-0.347471
-0.319674
-0.291876
-0.264078
-0.23628
-0.208483
-0.180685
-0.152887
-0.12509
-0.097292
-0.0694943
-0.0416966
-0.0138989
0.0138989
0.0416966
0.0694943
0.097292
0.12509
0.152887
0.180685
0.208483
0.23628
0.264078
0.291876
0.319674
0.347471
0.375269
0.403067
0.430864
0.458662
0.48646
0.514257
0.542055
0.569853
0.597651
0.625448
0.653246
0.681044
-0.673632
-0.646137
-0.618642
-0.591147
-0.563652
-0.536156
-0.508661
-0.481166
-0.453671
-0.426176
-0.39868
-0.371185
-0.34369
-0.316195
-0.2887
-0.261204
-0.233709
-0.206214
-0.178719
-0.151224
-0.123728
-0.0962332
-0.068738
-0.0412428
-0.0137476
0.0137476
0.0412428
0.068738
0.0962332
0.123728
0.151224
0.178719
0.206214
0.233709
0.261204
0.2887
0.316195
0.34369
0.371185
0.39868
0.426176
0.453671
0.481166
0.508661
0.536156
0.563652
0.591147
0.618642
0.646137
0.673632
-0.663453
-0.636373
-0.609293
-0.582214
-0.555134
-0.528054
-0.500975
-0.473895
-0.446815
-0.419735
-0.392656
-0.365576
-0.338496
-0.311417
-0.284337
-0.257257
-0.230177
-0.203098
-0.176018
-0.148938
-0.121859
-0.094779
-0.0676993
-0.0406196
-0.0135399
0.0135399
0.0406196
0.0676993
0.094779
0.121859
0.148938
0.176018
0.203098
0.230177
0.257257
0.284337
0.311417
0.338496
0.365576
0.392656
0.419735
0.446815
0.473895
0.500975
0.528054
0.555134
0.582214
0.609293
0.636373
0.663453
-0.651204
-0.624624
-0.598044
-0.571465
-0.544885
-0.518305
-0.491725
-0.465146
-0.438566
-0.411986
-0.385406
-0.358827
-0.332247
-0.305667
-0.279087
-0.252508
-0.225928
-0.199348
-0.172768
-0.146189
-0.119609
-0.0930291
-0.0664494
-0.0398696
-0.0132899
0.0132899
0.0398696
0.0664494
0.0930291
0.119609
0.146189
0.172768
0.199348
0.225928
0.252508
0.279087
0.305667
0.332247
0.358827
0.385406
0.411986
0.438566
0.465146
0.491725
0.518305
0.544885
0.571465
0.598044
0.624624
0.651204
-0.637442
-0.611424
-0.585406
-0.559388
-0.53337
-0.507352
-0.481334
-0.455315
-0.429297
-0.403279
-0.377261
-0.351243
-0.325225
-0.299207
-0.273189
-0.247171
-0.221153
-0.195135
-0.169117
-0.143099
-0.117081
-0.0910631
-0.0650451
-0.039027
-0.013009
0.013009
0.039027
0.0650451
0.0910631
0.117081
0.143099
0.169117
0.195135
0.221153
0.247171
0.273189
0.299207
0.325225
0.351243
0.377261
0.403279
0.429297
0.455315
0.481334
0.507352
0.53337
0.559388
0.585406
0.611424
0.637442
-0.622564
-0.597153
-0.571742
-0.546331
-0.520921
-0.49551
-0.470099
-0.444688
-0.419278
-0.393867
-0.368456
-0.343045
-0.317635
-0.292224
-0.266813
-0.241402
-0.215992
-0.190581
-0.16517
-0.139759
-0.114348
-0.0889377
-0.0635269
-0.0381161
-0.0127054
0.0127054
0.0381161
0.0635269
0.0889377
0.114348
0.139759
0.16517
0.190581
0.215992
0.241402
0.266813
0.292224
0.317635
0.343045
0.368456
0.393867
0.419278
0.444688
0.470099
0.49551
0.520921
0.546331
0.571742
0.597153
0.622564
-0.606846
-0.582076
-0.557307
-0.532538
-0.507769
-0.483
-0.45823
-0.433461
-0.408692
-0.383923
-0.359154
-0.334384
-0.309615
-0.284846
-0.260077
-0.235307
-0.210538
-0.185769
-0.161
-0.136231
-0.111461
-0.0866922
-0.061923
-0.0371538
-0.0123846
0.0123846
0.0371538
0.061923
0.0866922
0.111461
0.136231
0.161
0.185769
0.210538
0.235307
0.260077
0.284846
0.309615
0.334384
0.359154
0.383923
0.408692
0.433461
0.45823
0.483
0.507769
0.532538
0.557307
0.582076
0.606846
-0.590484
-0.566383
-0.542281
-0.51818
-0.494079
-0.469977
-0.445876
-0.421774
-0.397673
-0.373572
-0.34947
-0.325369
-0.301267
-0.277166
-0.253065
-0.228963
-0.204862
-0.18076
-0.156659
-0.132558
-0.108456
-0.0843549
-0.0602535
-0.0361521
-0.0120507
0.0120507
0.0361521
0.0602535
0.0843549
0.108456
0.132558
0.156659
0.18076
0.204862
0.228963
0.253065
0.277166
0.301267
0.325369
0.34947
0.373572
0.397673
0.421774
0.445876
0.469977
0.494079
0.51818
0.542281
0.566383
0.590484
-0.573631
-0.550217
-0.526804
-0.50339
-0.479977
-0.456563
-0.43315
-0.409736
-0.386323
-0.362909
-0.339496
-0.316082
-0.292669
-0.269255
-0.245842
-0.222428
-0.199015
-0.175601
-0.152188
-0.128774
-0.105361
-0.0819473
-0.0585338
-0.0351203
-0.0117068
0.0117068
0.0351203
0.0585338
0.0819473
0.105361
0.128774
0.152188
0.175601
0.199015
0.222428
0.245842
0.269255
0.292669
0.316082
0.339496
0.362909
0.386323
0.409736
0.43315
0.456563
0.479977
0.50339
0.526804
0.550217
0.573631
-0.556458
-0.533745
-0.511033
-0.48832
-0.465607
-0.442895
-0.420182
-0.39747
-0.374757
-0.352045
-0.329332
-0.30662
-0.283907
-0.261194
-0.238482
-0.215769
-0.193057
-0.170344
-0.147632
-0.124919
-0.102207
-0.079494
-0.0567814
-0.0340688
-0.0113563
0.0113563
0.0340688
0.0567814
0.079494
0.102207
0.124919
0.147632
0.170344
0.193057
0.215769
0.238482
0.261194
0.283907
0.30662
0.329332
0.352045
0.374757
0.39747
0.420182
0.442895
0.465607
0.48832
0.511033
0.533745
0.556458
-0.539072
-0.517069
-0.495066
-0.473063
-0.45106
-0.429057
-0.407054
-0.385051
-0.363048
-0.341045
-0.319043
-0.29704
-0.275037
-0.253034
-0.231031
-0.209028
-0.187025
-0.165022
-0.143019
-0.121016
-0.0990132
-0.0770103
-0.0550073
-0.0330044
-0.0110015
0.0110015
0.0330044
0.0550073
0.0770103
0.0990132
0.121016
0.143019
0.165022
0.187025
0.209028
0.231031
0.253034
0.275037
0.29704
0.319043
0.341045
0.363048
0.385051
0.407054
0.429057
0.45106
0.473063
0.495066
0.517069
0.539072
-0.5212
-0.499926
-0.478653
-0.457379
-0.436106
-0.414832
-0.393559
-0.372285
-0.351012
-0.329739
-0.308465
-0.287192
-0.265918
-0.244645
-0.223371
-0.202098
-0.180824
-0.159551
-0.138277
-0.117004
-0.0957306
-0.0744571
-0.0531836
-0.0319102
-0.0106367
0.0106367
0.0319102
0.0531836
0.0744571
0.0957306
0.117004
0.138277
0.159551
0.180824
0.202098
0.223371
0.244645
0.265918
0.287192
0.308465
0.329739
0.351012
0.372285
0.393559
0.414832
0.436106
0.457379
0.478653
0.499926
0.5212
-0.503563
-0.483009
-0.462456
-0.441902
-0.421348
-0.400795
-0.380241
-0.359688
-0.339134
-0.318581
-0.298027
-0.277473
-0.25692
-0.236366
-0.215813
-0.195259
-0.174705
-0.154152
-0.133598
-0.113045
-0.0924911
-0.0719375
-0.051384
-0.0308304
-0.0102768
0.0102768
0.0308304
0.051384
0.0719375
0.0924911
0.113045
0.133598
0.154152
0.174705
0.195259
0.215813
0.236366
0.25692
0.277473
0.298027
0.318581
0.339134
0.359688
0.380241
0.400795
0.421348
0.441902
0.462456
0.483009
0.503563
-0.492315
-0.472221
-0.452126
-0.432032
-0.411937
-0.391843
-0.371748
-0.351654
-0.331559
-0.311465
-0.29137
-0.271276
-0.251181
-0.231087
-0.210992
-0.190898
-0.170803
-0.150709
-0.130614
-0.11052
-0.0904253
-0.0703308
-0.0502363
-0.0301418
-0.0100473
0.0100473
0.0301418
0.0502363
0.0703308
0.0904253
0.11052
0.130614
0.150709
0.170803
0.190898
0.210992
0.231087
0.251181
0.271276
0.29137
0.311465
0.331559
0.351654
0.371748
0.391843
0.411937
0.432032
0.452126
0.472221
0.492315
-0.489803
-0.469811
-0.449819
-0.429827
-0.409835
-0.389843
-0.369851
-0.349859
-0.329868
-0.309876
-0.289884
-0.269892
-0.2499
-0.229908
-0.209916
-0.189924
-0.169932
-0.14994
-0.129948
-0.109956
-0.0899639
-0.0699719
-0.0499799
-0.029988
-0.00999599
0.00999599
0.029988
0.0499799
0.0699719
0.0899639
0.109956
0.129948
0.14994
0.169932
0.189924
0.209916
0.229908
0.2499
0.269892
0.289884
0.309876
0.329868
0.349859
0.369851
0.389843
0.409835
0.429827
0.449819
0.469811
0.489803
-0.49
-0.47
-0.45
-0.43
-0.41
-0.39
-0.37
-0.35
-0.33
-0.31
-0.29
-0.27
-0.25
-0.23
-0.21
-0.19
-0.17
-0.15
-0.13
-0.11
-0.09
-0.07
-0.05
-0.03
-0.01
0.01
0.03
0.05
0.07
0.09
0.11
0.13
0.15
0.17
0.19
0.21
0.23
0.25
0.27
0.29
0.31
0.33
0.35
0.37
0.39
0.41
0.43
0.45
0.47
0.49
-0.49
-0.47
-0.45
-0.43
-0.41
-0.39
-0.37
-0.35
-0.33
-0.31
-0.29
-0.27
-0.25
-0.23
-0.21
-0.19
-0.17
-0.15
-0.13
-0.11
-0.09
-0.07
-0.05
-0.03
-0.01
0.01
0.03
0.05
0.07
0.09
0.11
0.13
0.15
0.17
0.19
0.21
0.23
0.25
0.27
0.29
0.31
0.33
0.35
0.37
0.39
0.41
0.43
0.45
0.47
0.49
-0.49
-0.47
-0.45
-0.43
-0.41
-0.39
-0.37
-0.35
-0.33
-0.31
-0.29
-0.27
-0.25
-0.23
-0.21
-0.19
-0.17
-0.15
-0.13
-0.11
-0.09
-0.07
-0.05
-0.03
-0.01
0.01
0.03
0.05
0.07
0.09
0.11
0.13
0.15
0.17
0.19
0.21
0.23
0.25
0.27
0.29
0.31
0.33
0.35
0.37
0.39
0.41
0.43
0.45
0.47
0.49
-0.49
-0.47
-0.45
-0.43
-0.41
-0.39
-0.37
-0.35
-0.33
-0.31
-0.29
-0.27
-0.25
-0.23
-0.21
-0.19
-0.17
-0.15
-0.13
-0.11
-0.09
-0.07
-0.05
-0.03
-0.01
0.01
0.03
0.05
0.07
0.09
0.11
0.13
0.15
0.17
0.19
0.21
0.23
0.25
0.27
0.29
0.31
0.33
0.35
0.37
0.39
0.41
0.43
0.45
0.47
0.49
-0.49
-0.47
-0.45
-0.43
-0.41
-0.39
-0.37
-0.35
-0.33
-0.31
-0.29
-0.27
-0.25
-0.23
-0.21
-0.19
-0.17
-0.15
-0.13
-0.11
-0.09
-0.07
-0.05
-0.03
-0.01
0.01
0.03
0.05
0.07
0.09
0.11
0.13
0.15
0.17
0.19
0.21
0.23
0.25
0.27
0.29
0.31
0.33
0.35
0.37
0.39
0.41
0.43
0.45
0.47
0.49
-0.49
-0.47
-0.45
-0.43
-0.41
-0.39
-0.37
-0.35
-0.33
-0.31
-0.29
-0.27
-0.25
-0.23
-0.21
-0.19
-0.17
-0.15
-0.13
-0.11
-0.09
-0.07
-0.05
-0.03
-0.01
0.01
0.03
0.05
0.07
0.09
0.11
0.13
0.15
0.17
0.19
0.21
0.23
0.25
0.27
0.29
0.31
0.33
0.35
0.37
0.39
0.41
0.43
0.45
0.47
0.49
-0.49
-0.47
-0.45
-0.43
-0.41
-0.39
-0.37
-0.35
-0.33
-0.31
-0.29
-0.27
-0.25
-0.23
-0.21
-0.19
-0.17
-0.15
-0.13
-0.11
-0.09
-0.07
-0.05
-0.03
-0.01
0.01
0.03
0.05
0.07
0.09
0.11
0.13
0.15
0.17
0.19
0.21
0.23
0.25
0.27
0.29
0.31
0.33
0.35
0.37
0.39
0.41
0.43
0.45
0.47
0.49
-0.49
-0.47
-0.45
-0.43
-0.41
-0.39
-0.37
-0.35
-0.33
-0.31
-0.29
-0.27
-0.25
-0.23
-0.21
-0.19
-0.17
-0.15
-0.13
-0.11
-0.09
-0.07
-0.05
-0.03
-0.01
0.01
0.03
0.05
0.07
0.09
0.11
0.13
0.15
0.17
0.19
0.21
0.23
0.25
0.27
0.29
0.31
0.33
0.35
0.37
0.39
0.41
0.43
0.45
0.47
0.49
-0.49
-0.47
-0.45
-0.43
-0.41
-0.39
-0.37
-0.35
-0.33
-0.31
-0.29
-0.27
-0.25
-0.23
-0.21
-0.19
-0.17
-0.15
-0.13
-0.11
-0.09
-0.07
-0.05
-0.03
-0.01
0.01
0.03
0.05
0.07
0.09
0.11
0.13
0.15
0.17
0.19
0.21
0.23
0.25
0.27
0.29
0.31
0.33
0.35
0.37
0.39
0.41
0.43
0.45
0.47
0.49
)
;

boundaryField
{
    left
    {
        type            calculated;
        value           nonuniform List<scalar> 
50
(
-0.5
-0.5
-0.5
-0.5
-0.5
-0.5
-0.5
-0.5
-0.5
-0.499799
-0.502358
-0.513791
-0.531782
-0.550025
-0.567768
-0.585294
-0.602495
-0.619194
-0.635237
-0.650423
-0.664471
-0.676976
-0.68737
-0.694938
-0.698959
-0.698959
-0.694938
-0.68737
-0.676976
-0.664471
-0.650423
-0.635237
-0.619194
-0.602495
-0.585294
-0.567768
-0.550025
-0.531782
-0.513791
-0.502358
-0.499799
-0.5
-0.5
-0.5
-0.5
-0.5
-0.5
-0.5
-0.5
-0.5
)
;
    }
    right
    {
        type            calculated;
        value           nonuniform List<scalar> 
50
(
0.5
0.5
0.5
0.5
0.5
0.5
0.5
0.5
0.5
0.499799
0.502358
0.513791
0.531782
0.550025
0.567768
0.585294
0.602495
0.619194
0.635237
0.650423
0.664471
0.676976
0.68737
0.694938
0.698959
0.698959
0.694938
0.68737
0.676976
0.664471
0.650423
0.635237
0.619194
0.602495
0.585294
0.567768
0.550025
0.531782
0.513791
0.502358
0.499799
0.5
0.5
0.5
0.5
0.5
0.5
0.5
0.5
0.5
)
;
    }
    up
    {
        type            calculated;
        value           nonuniform List<scalar> 
50
(
-0.49
-0.47
-0.45
-0.43
-0.41
-0.39
-0.37
-0.35
-0.33
-0.31
-0.29
-0.27
-0.25
-0.23
-0.21
-0.19
-0.17
-0.15
-0.13
-0.11
-0.09
-0.07
-0.05
-0.03
-0.01
0.01
0.03
0.05
0.07
0.09
0.11
0.13
0.15
0.17
0.19
0.21
0.23
0.25
0.27
0.29
0.31
0.33
0.35
0.37
0.39
0.41
0.43
0.45
0.47
0.49
)
;
    }
    down
    {
        type            calculated;
        value           nonuniform List<scalar> 
50
(
-0.49
-0.47
-0.45
-0.43
-0.41
-0.39
-0.37
-0.35
-0.33
-0.31
-0.29
-0.27
-0.25
-0.23
-0.21
-0.19
-0.17
-0.15
-0.13
-0.11
-0.09
-0.07
-0.05
-0.03
-0.01
0.01
0.03
0.05
0.07
0.09
0.11
0.13
0.15
0.17
0.19
0.21
0.23
0.25
0.27
0.29
0.31
0.33
0.35
0.37
0.39
0.41
0.43
0.45
0.47
0.49
)
;
    }
    frontAndBack
    {
        type            empty;
    }
}


// ************************************************************************* //
