/*--------------------------------*- C++ -*----------------------------------*\
  =========                 |
  \\      /  F ield         | OpenFOAM: The Open Source CFD Toolbox
   \\    /   O peration     | Website:  https://openfoam.org
    \\  /    A nd           | Version:  6
     \\/     M anipulation  |
\*---------------------------------------------------------------------------*/
FoamFile
{
    version     2.0;
    format      ascii;
    class       volScalarField;
    location    "3200";
    object      p;
}
// * * * * * * * * * * * * * * * * * * * * * * * * * * * * * * * * * * * * * //

dimensions      [0 2 -2 0 0 0 0];

internalField   nonuniform List<scalar> 
2500
(
1.62336
1.02186
0.715074
0.582047
0.499967
0.442701
0.401905
0.371671
0.34841
0.330053
0.315305
0.303295
0.293412
0.285218
0.278388
0.272679
0.267906
0.263926
0.260629
0.257932
0.25577
0.254092
0.252864
0.252059
0.25166
0.25166
0.252059
0.252864
0.254092
0.25577
0.257932
0.260629
0.263926
0.267906
0.272679
0.278388
0.285218
0.293412
0.303295
0.315305
0.330053
0.34841
0.371671
0.401905
0.442701
0.499967
0.582047
0.715074
1.02186
1.62336
0.885483
0.714056
0.613006
0.542903
0.481187
0.432678
0.396112
0.367963
0.345827
0.328155
0.313861
0.302167
0.292514
0.28449
0.277789
0.272178
0.26748
0.263558
0.260306
0.257644
0.255508
0.25385
0.252635
0.251839
0.251444
0.251444
0.251839
0.252635
0.25385
0.255508
0.257644
0.260306
0.263558
0.26748
0.272178
0.277789
0.28449
0.292514
0.302167
0.313861
0.328155
0.345827
0.367963
0.396112
0.432678
0.481187
0.542903
0.613006
0.714056
0.885483
0.509317
0.495958
0.488493
0.464841
0.432631
0.402365
0.376369
0.354448
0.336185
0.32104
0.308459
0.297968
0.289182
0.281799
0.275578
0.270333
0.265915
0.262209
0.259124
0.25659
0.254551
0.252965
0.251801
0.251037
0.250658
0.250658
0.251037
0.251801
0.252965
0.254551
0.25659
0.259124
0.262209
0.265915
0.270333
0.275578
0.281799
0.289182
0.297968
0.308459
0.32104
0.336185
0.354448
0.376369
0.402365
0.432631
0.464841
0.488493
0.495958
0.509317
0.371967
0.387349
0.396971
0.391381
0.378685
0.363854
0.348636
0.334156
0.321073
0.309569
0.299587
0.290983
0.283592
0.277254
0.271827
0.267189
0.26324
0.259896
0.257092
0.254773
0.252898
0.251433
0.250355
0.249646
0.249294
0.249294
0.249646
0.250355
0.251433
0.252898
0.254773
0.257092
0.259896
0.26324
0.267189
0.271827
0.277254
0.283592
0.290983
0.299587
0.309569
0.321073
0.334156
0.348636
0.363854
0.378685
0.391381
0.396971
0.387349
0.371967
0.293462
0.314005
0.328596
0.332759
0.331585
0.326933
0.319935
0.311885
0.303715
0.295926
0.288751
0.28228
0.276518
0.271433
0.266974
0.263089
0.259726
0.256839
0.254391
0.252347
0.250681
0.249373
0.248405
0.247766
0.247449
0.247449
0.247766
0.248405
0.249373
0.250681
0.252347
0.254391
0.256839
0.259726
0.263089
0.266974
0.271433
0.276518
0.28228
0.288751
0.295926
0.303715
0.311885
0.319935
0.326933
0.331585
0.332759
0.328596
0.314005
0.293462
0.238273
0.25725
0.273781
0.284158
0.290506
0.293057
0.292409
0.289671
0.285794
0.28142
0.276946
0.272604
0.26852
0.264757
0.261342
0.258279
0.255565
0.25319
0.251142
0.24941
0.247984
0.246853
0.246012
0.245454
0.245176
0.245176
0.245454
0.246012
0.246853
0.247984
0.24941
0.251142
0.25319
0.255565
0.258279
0.261342
0.264757
0.26852
0.272604
0.276946
0.28142
0.285794
0.289671
0.292409
0.293057
0.290506
0.284158
0.273781
0.25725
0.238273
0.199442
0.214902
0.230727
0.243935
0.25482
0.262451
0.266715
0.268327
0.268128
0.266793
0.264801
0.262473
0.260015
0.257559
0.255192
0.252967
0.250921
0.249077
0.247448
0.246045
0.244871
0.24393
0.243224
0.242752
0.242517
0.242517
0.242752
0.243224
0.24393
0.244871
0.246045
0.247448
0.249077
0.250921
0.252967
0.255192
0.257559
0.260015
0.262473
0.264801
0.266793
0.268128
0.268327
0.266715
0.262451
0.25482
0.243935
0.230727
0.214902
0.199442
0.168784
0.181646
0.196573
0.211268
0.224879
0.235861
0.243646
0.248606
0.251402
0.252656
0.252853
0.252348
0.25139
0.25016
0.248787
0.247367
0.245968
0.244641
0.243425
0.242345
0.241422
0.24067
0.240099
0.239714
0.239521
0.239521
0.239714
0.240099
0.24067
0.241422
0.242345
0.243425
0.244641
0.245968
0.247367
0.248787
0.25016
0.25139
0.252348
0.252853
0.252656
0.251402
0.248606
0.243646
0.235861
0.224879
0.211268
0.196573
0.181646
0.168784
0.140499
0.152314
0.167333
0.183984
0.199942
0.213369
0.223681
0.231132
0.236265
0.239622
0.241652
0.242706
0.243052
0.242899
0.242409
0.241707
0.240891
0.240035
0.239195
0.238414
0.237724
0.237148
0.236703
0.2364
0.236247
0.236247
0.2364
0.236703
0.237148
0.237724
0.238414
0.239195
0.240035
0.240891
0.241707
0.242409
0.242899
0.243052
0.242706
0.241652
0.239622
0.236265
0.231132
0.223681
0.213369
0.199942
0.183984
0.167333
0.152314
0.140499
0.131669
0.1404
0.154875
0.170618
0.184968
0.197176
0.207285
0.215532
0.222103
0.227139
0.230806
0.233311
0.234878
0.235728
0.236052
0.23601
0.235727
0.235301
0.234807
0.234301
0.233825
0.233412
0.233084
0.232857
0.232742
0.232742
0.232857
0.233084
0.233412
0.233825
0.234301
0.234807
0.235301
0.235727
0.23601
0.236052
0.235728
0.234878
0.233311
0.230806
0.227139
0.222103
0.215532
0.207285
0.197176
0.184968
0.170618
0.154875
0.1404
0.131669
0.0825151
0.112792
0.144147
0.164545
0.178811
0.189721
0.198334
0.205536
0.211842
0.217307
0.221798
0.22524
0.227689
0.229296
0.230243
0.230705
0.23083
0.230733
0.230503
0.230208
0.229898
0.229611
0.229374
0.229206
0.229119
0.229119
0.229206
0.229374
0.229611
0.229898
0.230208
0.230503
0.230733
0.23083
0.230705
0.230243
0.229296
0.227689
0.22524
0.221798
0.217307
0.211842
0.205536
0.198334
0.189721
0.178811
0.164545
0.144147
0.112792
0.0825151
-0.0475645
-0.00442675
0.046236
0.0868057
0.12074
0.150306
0.174432
0.192499
0.205203
0.213791
0.219448
0.223096
0.225383
0.226749
0.227488
0.227803
0.227834
0.227684
0.227428
0.227124
0.226814
0.226531
0.2263
0.226136
0.226052
0.226052
0.226136
0.2263
0.226531
0.226814
0.227124
0.227428
0.227684
0.227834
0.227803
0.227488
0.226749
0.225383
0.223096
0.219448
0.213791
0.205203
0.192499
0.174432
0.150306
0.12074
0.0868057
0.046236
-0.00442675
-0.0475645
0.0294047
0.0320665
0.0574666
0.0863359
0.112075
0.135545
0.156944
0.175423
0.19036
0.201725
0.209928
0.215591
0.219359
0.221777
0.223257
0.224095
0.224499
0.224615
0.224549
0.22438
0.224164
0.223947
0.223758
0.22362
0.223548
0.223548
0.22362
0.223758
0.223947
0.224164
0.22438
0.224549
0.224615
0.224499
0.224095
0.223257
0.221777
0.219359
0.215591
0.209928
0.201725
0.19036
0.175423
0.156944
0.135545
0.112075
0.0863359
0.0574666
0.0320665
0.0294047
0.0864126
0.0768496
0.08552
0.10328
0.121147
0.137475
0.152933
0.1676
0.180943
0.192357
0.201506
0.20841
0.213355
0.216741
0.21896
0.220341
0.221134
0.221527
0.221657
0.221624
0.221502
0.221348
0.2212
0.221087
0.221026
0.221026
0.221087
0.2212
0.221348
0.221502
0.221624
0.221657
0.221527
0.221134
0.220341
0.21896
0.216741
0.213355
0.20841
0.201506
0.192357
0.180943
0.1676
0.152933
0.137475
0.121147
0.10328
0.08552
0.0768496
0.0864126
0.122556
0.106131
0.103834
0.11291
0.125802
0.138999
0.151953
0.164642
0.176699
0.187533
0.196648
0.203838
0.209187
0.21297
0.215523
0.217161
0.218144
0.218674
0.218899
0.218931
0.218853
0.218727
0.218597
0.218494
0.218438
0.218438
0.218494
0.218597
0.218727
0.218853
0.218931
0.218899
0.218674
0.218144
0.217161
0.215523
0.21297
0.209187
0.203838
0.196648
0.187533
0.176699
0.164642
0.151953
0.138999
0.125802
0.11291
0.103834
0.106131
0.122556
0.149648
0.132726
0.124488
0.126447
0.134154
0.143927
0.154251
0.164751
0.175134
0.184884
0.193446
0.20046
0.205848
0.209756
0.212448
0.214206
0.215283
0.215879
0.216149
0.216211
0.216152
0.216036
0.215911
0.215811
0.215755
0.215755
0.215811
0.215911
0.216036
0.216152
0.216211
0.216149
0.215879
0.215283
0.214206
0.212448
0.209756
0.205848
0.20046
0.193446
0.184884
0.175134
0.164751
0.154251
0.143927
0.134154
0.126447
0.124488
0.132726
0.149648
0.168972
0.154665
0.144942
0.142594
0.145988
0.152388
0.159906
0.167867
0.176071
0.184181
0.19168
0.198102
0.20321
0.207011
0.209673
0.211431
0.212513
0.213112
0.213383
0.213441
0.213375
0.213253
0.213122
0.213016
0.212958
0.212958
0.213016
0.213122
0.213253
0.213375
0.213441
0.213383
0.213112
0.212513
0.211431
0.209673
0.207011
0.20321
0.198102
0.19168
0.184181
0.176071
0.167867
0.159906
0.152388
0.145988
0.142594
0.144942
0.154665
0.168972
0.183245
0.171612
0.16242
0.15812
0.158638
0.162433
0.167703
0.173474
0.179518
0.185715
0.19173
0.197124
0.201572
0.204961
0.207364
0.20895
0.209912
0.210423
0.210627
0.210633
0.210527
0.210374
0.21022
0.2101
0.210035
0.210035
0.2101
0.21022
0.210374
0.210527
0.210633
0.210627
0.210423
0.209912
0.20895
0.207364
0.204961
0.201572
0.197124
0.19173
0.185715
0.179518
0.173474
0.167703
0.162433
0.158638
0.15812
0.16242
0.171612
0.183245
0.194489
0.18499
0.17689
0.172002
0.170847
0.172807
0.176453
0.180615
0.18488
0.189233
0.193573
0.197616
0.201056
0.203724
0.205613
0.206829
0.20752
0.207832
0.207886
0.207781
0.207592
0.207378
0.207182
0.207035
0.206956
0.206956
0.207035
0.207182
0.207378
0.207592
0.207781
0.207886
0.207832
0.20752
0.206829
0.205613
0.203724
0.201056
0.197616
0.193573
0.189233
0.18488
0.180615
0.176453
0.172807
0.170847
0.172002
0.17689
0.18499
0.194489
0.203681
0.195914
0.188984
0.184211
0.182234
0.182988
0.185483
0.188528
0.191475
0.194254
0.196938
0.199458
0.201632
0.203304
0.204434
0.205078
0.205338
0.205328
0.205142
0.204859
0.20454
0.204232
0.20397
0.203782
0.203684
0.203684
0.203782
0.20397
0.204232
0.20454
0.204859
0.205142
0.205328
0.205338
0.205078
0.204434
0.203304
0.201632
0.199458
0.196938
0.194254
0.191475
0.188528
0.185483
0.182988
0.182234
0.184211
0.188984
0.195914
0.203681
0.211297
0.205033
0.199246
0.194943
0.192717
0.192774
0.194488
0.196776
0.198805
0.200341
0.201516
0.202467
0.203198
0.203649
0.203794
0.203668
0.203337
0.202879
0.202358
0.201827
0.201326
0.200888
0.200537
0.200293
0.200168
0.200168
0.200293
0.200537
0.200888
0.201326
0.201827
0.202358
0.202879
0.203337
0.203668
0.203794
0.203649
0.203198
0.202467
0.201516
0.200341
0.198805
0.196776
0.194488
0.192774
0.192717
0.194943
0.199246
0.205033
0.211297
0.217626
0.212751
0.208094
0.204454
0.202357
0.202117
0.203354
0.205137
0.206538
0.207128
0.206993
0.20641
0.205593
0.204643
0.203607
0.202528
0.201453
0.200425
0.199475
0.198626
0.197893
0.197289
0.196825
0.196511
0.196352
0.196352
0.196511
0.196825
0.197289
0.197893
0.198626
0.199475
0.200425
0.201453
0.202528
0.203607
0.204643
0.205593
0.20641
0.206993
0.207128
0.206538
0.205137
0.203354
0.202117
0.202357
0.204454
0.208094
0.212751
0.217626
0.222895
0.219358
0.215848
0.213006
0.211302
0.21107
0.212072
0.213512
0.214444
0.214282
0.213006
0.210962
0.208555
0.206079
0.203705
0.201522
0.199572
0.197869
0.196411
0.195183
0.194174
0.193373
0.192776
0.192378
0.192179
0.192179
0.192378
0.192776
0.193373
0.194174
0.195183
0.196411
0.197869
0.199572
0.201522
0.203705
0.206079
0.208555
0.210962
0.213006
0.214282
0.214444
0.213512
0.212072
0.21107
0.211302
0.213006
0.215848
0.219358
0.222895
0.227345
0.225114
0.222787
0.220853
0.219739
0.219744
0.220683
0.221851
0.222328
0.221448
0.219102
0.215654
0.211657
0.2076
0.203801
0.200421
0.197515
0.195074
0.193057
0.191415
0.190104
0.189089
0.188345
0.187857
0.187615
0.187615
0.187857
0.188345
0.189089
0.190104
0.191415
0.193057
0.195074
0.197515
0.200421
0.203801
0.2076
0.211657
0.215654
0.219102
0.221448
0.222328
0.221851
0.220683
0.219744
0.219739
0.220853
0.222787
0.225114
0.227345
0.231276
0.230322
0.229202
0.228255
0.227866
0.228258
0.229214
0.230061
0.229938
0.228196
0.224701
0.219838
0.214278
0.208669
0.203466
0.1989
0.195045
0.191871
0.189301
0.187251
0.185642
0.184416
0.183528
0.182951
0.182666
0.182666
0.182951
0.183528
0.184416
0.185642
0.187251
0.189301
0.191871
0.195045
0.1989
0.203466
0.208669
0.214278
0.219838
0.224701
0.228196
0.229938
0.230061
0.229214
0.228258
0.227866
0.228255
0.229202
0.230322
0.231276
0.235055
0.235345
0.235421
0.235481
0.235865
0.236679
0.237601
0.237939
0.236907
0.233974
0.229097
0.222748
0.215682
0.208651
0.202192
0.196584
0.191904
0.188097
0.185054
0.182653
0.180791
0.179385
0.178375
0.177722
0.177402
0.177402
0.177722
0.178375
0.179385
0.180791
0.182653
0.185054
0.188097
0.191904
0.196584
0.202192
0.208651
0.215682
0.222748
0.229097
0.233974
0.236907
0.237939
0.237601
0.236679
0.235865
0.235481
0.235421
0.235345
0.235055
0.239081
0.240575
0.241777
0.242775
0.24385
0.244949
0.245605
0.245082
0.242696
0.238135
0.231587
0.223678
0.215231
0.207017
0.199582
0.193202
0.187927
0.183673
0.180296
0.177652
0.175613
0.174082
0.172987
0.172282
0.171937
0.171937
0.172282
0.172987
0.174082
0.175613
0.177652
0.180296
0.183673
0.187927
0.193202
0.199582
0.207017
0.215231
0.223678
0.231587
0.238135
0.242696
0.245082
0.245605
0.244949
0.24385
0.242775
0.241777
0.240575
0.239081
0.243716
0.246347
0.248532
0.250283
0.251797
0.252831
0.252766
0.250868
0.246639
0.240069
0.231651
0.222197
0.212579
0.203519
0.195485
0.188681
0.183101
0.178625
0.175088
0.172327
0.170205
0.168616
0.167484
0.166755
0.166398
0.166398
0.166755
0.167484
0.168616
0.170205
0.172327
0.175088
0.178625
0.183101
0.188681
0.195485
0.203519
0.212579
0.222197
0.231651
0.240069
0.246639
0.250868
0.252766
0.252831
0.251797
0.250283
0.248532
0.246347
0.243716
0.249236
0.252881
0.25581
0.257988
0.259491
0.259881
0.258445
0.254566
0.248057
0.23928
0.229025
0.218245
0.207793
0.198279
0.190034
0.183147
0.177544
0.173068
0.169538
0.166786
0.164672
0.16309
0.161963
0.161238
0.160883
0.160883
0.161238
0.161963
0.16309
0.164672
0.166786
0.169538
0.173068
0.177544
0.183147
0.190034
0.198279
0.207793
0.218245
0.229025
0.23928
0.248057
0.254566
0.258445
0.259881
0.259491
0.257988
0.25581
0.252881
0.249236
0.255811
0.260258
0.263568
0.265662
0.266478
0.265432
0.261859
0.255431
0.246382
0.235461
0.223674
0.211994
0.201161
0.191611
0.183512
0.176837
0.171445
0.167149
0.163764
0.161122
0.159091
0.157569
0.156484
0.155786
0.155444
0.155444
0.155786
0.156484
0.157569
0.159091
0.161122
0.163764
0.167149
0.171445
0.176837
0.183512
0.191611
0.201161
0.211994
0.223674
0.235461
0.246382
0.255431
0.261859
0.265432
0.266478
0.265662
0.263568
0.260258
0.255811
0.263502
0.268419
0.271566
0.272819
0.272016
0.268583
0.262121
0.252764
0.241218
0.228526
0.215754
0.203749
0.193042
0.183863
0.17622
0.169988
0.164981
0.160998
0.157856
0.155399
0.153505
0.152083
0.151067
0.150413
0.150092
0.150092
0.150413
0.151067
0.152083
0.153505
0.155399
0.157856
0.160998
0.164981
0.169988
0.17622
0.183863
0.193042
0.203749
0.215754
0.228526
0.241218
0.252764
0.262121
0.268583
0.272016
0.272819
0.271566
0.268419
0.263502
0.272263
0.277141
0.279296
0.278615
0.27501
0.268198
0.258296
0.246002
0.232398
0.218622
0.205594
0.193902
0.183814
0.175357
0.168414
0.162796
0.158293
0.154709
0.151875
0.149651
0.147931
0.146636
0.145707
0.145107
0.144813
0.144813
0.145107
0.145707
0.146636
0.147931
0.149651
0.151875
0.154709
0.158293
0.162796
0.168414
0.175357
0.183814
0.193902
0.205594
0.218622
0.232398
0.246002
0.258296
0.268198
0.27501
0.278615
0.279296
0.277141
0.272263
0.281935
0.285967
0.285844
0.281714
0.273966
0.26298
0.249555
0.234852
0.220067
0.206148
0.193678
0.182909
0.173855
0.166387
0.160311
0.155411
0.151483
0.148348
0.145859
0.143896
0.142371
0.141217
0.140387
0.13985
0.139585
0.139585
0.13985
0.140387
0.141217
0.142371
0.143896
0.145859
0.148348
0.151483
0.155411
0.160311
0.166387
0.173855
0.182909
0.193678
0.206148
0.220067
0.234852
0.249555
0.26298
0.273966
0.281714
0.285844
0.285967
0.281935
0.29225
0.294068
0.289642
0.280133
0.267049
0.251695
0.235422
0.219478
0.204763
0.19176
0.180615
0.171263
0.163533
0.157214
0.152089
0.147954
0.144629
0.141962
0.139832
0.138143
0.136822
0.135817
0.13509
0.134619
0.134386
0.134386
0.134619
0.13509
0.135817
0.136822
0.138143
0.139832
0.141962
0.144629
0.147954
0.152089
0.157214
0.163533
0.171263
0.180615
0.19176
0.204763
0.219478
0.235422
0.251695
0.267049
0.280133
0.289642
0.294068
0.29225
0.302825
0.299861
0.288059
0.271191
0.252388
0.233609
0.216137
0.200681
0.187449
0.176332
0.167088
0.159452
0.153182
0.14806
0.143896
0.140521
0.137792
0.135588
0.133814
0.132397
0.13128
0.130425
0.129803
0.129398
0.129198
0.129198
0.129398
0.129803
0.130425
0.13128
0.132397
0.133814
0.135588
0.137792
0.140521
0.143896
0.14806
0.153182
0.159452
0.167088
0.176332
0.187449
0.200681
0.216137
0.233609
0.252388
0.271191
0.288059
0.299861
0.302825
0.312573
0.299746
0.27674
0.251722
0.22872
0.209075
0.192946
0.179928
0.169412
0.160831
0.153762
0.147915
0.143085
0.139112
0.135858
0.133202
0.131036
0.129271
0.127837
0.126679
0.125759
0.125048
0.124528
0.124187
0.124018
0.124018
0.124187
0.124528
0.125048
0.125759
0.126679
0.127837
0.129271
0.131036
0.133202
0.135858
0.139112
0.143085
0.147915
0.153762
0.160831
0.169412
0.179928
0.192946
0.209075
0.22872
0.251722
0.27674
0.299746
0.312573
0.315783
0.286196
0.249876
0.219249
0.196394
0.179871
0.167872
0.158869
0.151776
0.145944
0.141035
0.136882
0.133386
0.130466
0.128045
0.126045
0.124394
0.123032
0.12191
0.120993
0.120255
0.119678
0.119253
0.118973
0.118834
0.118834
0.118973
0.119253
0.119678
0.120255
0.120993
0.12191
0.123032
0.124394
0.126045
0.128045
0.130466
0.133386
0.136882
0.141035
0.145944
0.151776
0.158869
0.167872
0.179871
0.196394
0.219249
0.249876
0.286196
0.315783
0.304141
0.256378
0.209919
0.180695
0.163851
0.153703
0.146972
0.141866
0.137522
0.133634
0.13015
0.127094
0.124482
0.122297
0.120493
0.119013
0.117796
0.11679
0.115957
0.115268
0.114708
0.114265
0.113935
0.113716
0.113606
0.113606
0.113716
0.113935
0.114265
0.114708
0.115268
0.115957
0.11679
0.117796
0.119013
0.120493
0.122297
0.124482
0.127094
0.13015
0.133634
0.137522
0.141866
0.146972
0.153703
0.163851
0.180695
0.209919
0.256378
0.304141
0.263204
0.198383
0.157166
0.141521
0.135833
0.132915
0.130493
0.127907
0.125129
0.122353
0.119778
0.11753
0.115652
0.114127
0.112903
0.111919
0.111117
0.110451
0.10989
0.109418
0.109025
0.108708
0.108468
0.108306
0.108224
0.108224
0.108306
0.108468
0.108708
0.109025
0.109418
0.10989
0.110451
0.111117
0.111919
0.112903
0.114127
0.115652
0.11753
0.119778
0.122353
0.125129
0.127907
0.130493
0.132915
0.135833
0.141521
0.157166
0.198383
0.263204
0.0546237
0.0522661
0.059431
0.0713977
0.0809758
0.0875002
0.0919545
0.0951446
0.0975797
0.0995257
0.101083
0.102272
0.103097
0.103578
0.103761
0.103708
0.103487
0.103166
0.102799
0.10243
0.102091
0.101801
0.101576
0.101422
0.101344
0.101344
0.101422
0.101576
0.101801
0.102091
0.10243
0.102799
0.103166
0.103487
0.103708
0.103761
0.103578
0.103097
0.102272
0.101083
0.0995257
0.0975797
0.0951446
0.0919545
0.0875002
0.0809758
0.0713977
0.059431
0.0522661
0.0546237
0.0123568
0.0270363
0.0443463
0.0576822
0.0673494
0.0745424
0.0799221
0.0839213
0.0868994
0.0891254
0.0907808
0.0919861
0.0928268
0.0933706
0.0936766
0.0937988
0.0937862
0.0936824
0.0935244
0.0933425
0.0931605
0.0929964
0.0928633
0.0927701
0.0927221
0.0927221
0.0927701
0.0928633
0.0929964
0.0931605
0.0933425
0.0935244
0.0936824
0.0937862
0.0937988
0.0936766
0.0933706
0.0928268
0.0919861
0.0907808
0.0891254
0.0868994
0.0839213
0.0799221
0.0745424
0.0673494
0.0576822
0.0443463
0.0270363
0.0123568
0.0288739
0.0379287
0.0483965
0.0564445
0.0631786
0.068946
0.0735785
0.0770416
0.0794762
0.0810981
0.0821314
0.082772
0.0831693
0.0834235
0.0835939
0.0837109
0.0837882
0.083832
0.083847
0.0838389
0.0838148
0.0837827
0.0837505
0.0837249
0.0837108
0.0837108
0.0837249
0.0837505
0.0837827
0.0838148
0.0838389
0.083847
0.083832
0.0837882
0.0837109
0.0835939
0.0834235
0.0831693
0.082772
0.0821314
0.0810981
0.0794762
0.0770416
0.0735785
0.068946
0.0631786
0.0564445
0.0483965
0.0379287
0.0288739
0.0218772
0.0285545
0.03561
0.0418193
0.0478379
0.0535029
0.0584359
0.0624695
0.0656192
0.0679967
0.0697528
0.0710387
0.0719832
0.0726849
0.0732126
0.0736121
0.0739132
0.074136
0.0742959
0.0744054
0.0744762
0.0745187
0.0745419
0.074553
0.0745573
0.0745573
0.074553
0.0745419
0.0745187
0.0744762
0.0744054
0.0742959
0.074136
0.0739132
0.0736121
0.0732126
0.0726849
0.0719832
0.0710387
0.0697528
0.0679967
0.0656192
0.0624695
0.0584359
0.0535029
0.0478379
0.0418193
0.03561
0.0285545
0.0218772
0.0145777
0.0193606
0.0245694
0.0295262
0.0346236
0.0397069
0.0444514
0.0486444
0.0522008
0.0551268
0.057483
0.0593529
0.0608219
0.0619672
0.0628538
0.0635345
0.0640516
0.064439
0.0647241
0.0649295
0.0650734
0.0651708
0.0652335
0.0652705
0.0652875
0.0652875
0.0652705
0.0652335
0.0651708
0.0650734
0.0649295
0.0647241
0.064439
0.0640516
0.0635345
0.0628538
0.0619672
0.0608219
0.0593529
0.057483
0.0551268
0.0522008
0.0486444
0.0444514
0.0397069
0.0346236
0.0295262
0.0245694
0.0193606
0.0145777
0.0103382
0.014044
0.0181209
0.0220048
0.0260336
0.0301898
0.034263
0.0380524
0.0414272
0.0443316
0.0467689
0.0487769
0.0504089
0.0517207
0.0527648
0.0535877
0.054229
0.0547226
0.0550969
0.0553756
0.0555785
0.0557218
0.0558183
0.0558773
0.0559052
0.0559052
0.0558773
0.0558183
0.0557218
0.0555785
0.0553756
0.0550969
0.0547226
0.054229
0.0535877
0.0527648
0.0517207
0.0504089
0.0487769
0.0467689
0.0443316
0.0414272
0.0380524
0.034263
0.0301898
0.0260336
0.0220048
0.0181209
0.014044
0.0103382
0.0068536
0.00985404
0.0131031
0.0161395
0.0192697
0.0225587
0.0258909
0.0291096
0.0320819
0.0347257
0.0370105
0.0389432
0.0405521
0.0418749
0.0429508
0.0438169
0.0445063
0.0450482
0.0454682
0.0457879
0.046026
0.0461979
0.0463159
0.0463895
0.0464247
0.0464247
0.0463895
0.0463159
0.0461979
0.046026
0.0457879
0.0454682
0.0450482
0.0445063
0.0438169
0.0429508
0.0418749
0.0405521
0.0389432
0.0370105
0.0347257
0.0320819
0.0291096
0.0258909
0.0225587
0.0192697
0.0161395
0.0131031
0.00985404
0.0068536
0.00351499
0.00598146
0.00857184
0.0108969
0.0132528
0.0157588
0.0183731
0.0209885
0.0234884
0.0257824
0.0278187
0.0295812
0.0310774
0.0323286
0.0333618
0.0342051
0.0348851
0.0354265
0.035851
0.0361782
0.0364246
0.0366045
0.0367292
0.0368076
0.0368453
0.0368453
0.0368076
0.0367292
0.0366045
0.0364246
0.0361782
0.035851
0.0354265
0.0348851
0.0342051
0.0333618
0.0323286
0.0310774
0.0295812
0.0278187
0.0257824
0.0234884
0.0209885
0.0183731
0.0157588
0.0132528
0.0108969
0.00857184
0.00598146
0.00351499
0.000374659
0.00243122
0.00449914
0.00619998
0.00785623
0.00963872
0.0115628
0.013565
0.0155507
0.0174313
0.0191451
0.0206603
0.0219695
0.0230805
0.0240094
0.0247759
0.0253998
0.0259005
0.0262958
0.0266022
0.026834
0.0270037
0.0271217
0.0271959
0.0272316
0.0272316
0.0271959
0.0271217
0.0270037
0.026834
0.0266022
0.0262958
0.0259005
0.0253998
0.0247759
0.0240094
0.0230805
0.0219695
0.0206603
0.0191451
0.0174313
0.0155507
0.013565
0.0115628
0.00963872
0.00785623
0.00619998
0.00449914
0.00243122
0.000374659
-0.00264086
-0.00102426
0.000511906
0.00165111
0.00274556
0.00396545
0.00533057
0.00679055
0.00826614
0.00968129
0.0109818
0.0121388
0.0131441
0.0140023
0.0147247
0.0153253
0.0158182
0.0162172
0.0165347
0.0167826
0.0169715
0.0171107
0.0172082
0.0172703
0.0173009
0.0173009
0.0172703
0.0172082
0.0171107
0.0169715
0.0167826
0.0165347
0.0162172
0.0158182
0.0153253
0.0147247
0.0140023
0.0131441
0.0121388
0.0109818
0.00968129
0.00826614
0.00679055
0.00533057
0.00396545
0.00274556
0.00165111
0.000511906
-0.00102426
-0.00264086
-0.00383868
-0.00336328
-0.00330708
-0.00339672
-0.00329858
-0.00286959
-0.00208927
-0.00102105
0.000222844
0.00152429
0.00279021
0.00396268
0.00501358
0.00593375
0.0067237
0.00738833
0.00793497
0.00837309
0.00871415
0.00897115
0.00915777
0.00928724
0.00937138
0.0094198
0.00944003
0.00944003
0.0094198
0.00937138
0.00928724
0.00915777
0.00897115
0.00871415
0.00837309
0.00793497
0.00738833
0.0067237
0.00593375
0.00501358
0.00396268
0.00279021
0.00152429
0.000222844
-0.00102105
-0.00208927
-0.00286959
-0.00329858
-0.00339672
-0.00330708
-0.00336328
-0.00383868
)
;

boundaryField
{
    left
    {
        type            zeroGradient;
    }
    right
    {
        type            zeroGradient;
    }
    up
    {
        type            fixedValue;
        value           uniform 0;
    }
    down
    {
        type            zeroGradient;
    }
    frontAndBack
    {
        type            empty;
    }
}


// ************************************************************************* //
