/*--------------------------------*- C++ -*----------------------------------*\
  =========                 |
  \\      /  F ield         | OpenFOAM: The Open Source CFD Toolbox
   \\    /   O peration     | Website:  https://openfoam.org
    \\  /    A nd           | Version:  6
     \\/     M anipulation  |
\*---------------------------------------------------------------------------*/
FoamFile
{
    version     2.0;
    format      ascii;
    class       surfaceScalarField;
    location    "3200";
    object      phi;
}
// * * * * * * * * * * * * * * * * * * * * * * * * * * * * * * * * * * * * * //

dimensions      [0 3 -1 0 0 0 0];

internalField   nonuniform List<scalar> 
4900
(
4.3472e-05
0.000156528
3.13918e-05
0.00021208
1.95542e-05
0.000211838
1.24771e-05
0.000207077
8.31412e-06
0.000204163
5.8144e-06
0.0002025
4.2614e-06
0.000201553
3.24286e-06
0.000201019
2.53728e-06
0.000200706
2.02629e-06
0.000200511
1.64314e-06
0.000200383
1.34775e-06
0.000200295
1.11478e-06
0.000200233
9.27418e-07
0.000200187
7.74052e-07
0.000200153
6.46407e-07
0.000200128
5.38416e-07
0.000200108
4.45527e-07
0.000200093
3.64261e-07
0.000200081
2.91904e-07
0.000200072
2.26299e-07
0.000200066
1.65686e-07
0.000200061
1.08595e-07
0.000200057
5.37506e-08
0.000200055
-8.98859e-17
0.000200054
-5.37506e-08
0.000200054
-1.08595e-07
0.000200055
-1.65686e-07
0.000200057
-2.26299e-07
0.000200061
-2.91904e-07
0.000200066
-3.64261e-07
0.000200072
-4.45527e-07
0.000200081
-5.38416e-07
0.000200093
-6.46407e-07
0.000200108
-7.74052e-07
0.000200128
-9.27418e-07
0.000200153
-1.11478e-06
0.000200187
-1.34775e-06
0.000200233
-1.64314e-06
0.000200295
-2.02629e-06
0.000200383
-2.53728e-06
0.000200511
-3.24286e-06
0.000200706
-4.2614e-06
0.000201019
-5.8144e-06
0.000201553
-8.31412e-06
0.0002025
-1.24771e-05
0.000204163
-1.95542e-05
0.000207077
-3.13918e-05
0.000211838
-4.3472e-05
0.00021208
0.000156528
4.33113e-05
0.000113217
5.31887e-05
0.000202203
4.39829e-05
0.000221043
3.22866e-05
0.000218773
2.32134e-05
0.000213236
1.69355e-05
0.000208778
1.26651e-05
0.000205823
9.71516e-06
0.000203969
7.62112e-06
0.0002028
6.08938e-06
0.000202043
4.93685e-06
0.000201536
4.04777e-06
0.000201184
3.34686e-06
0.000200934
2.78354e-06
0.000200751
2.32275e-06
0.000200614
1.93943e-06
0.000200511
1.61525e-06
0.000200432
1.33649e-06
0.000200372
1.09266e-06
0.000200325
8.75587e-07
0.000200289
6.78785e-07
0.000200262
4.96972e-07
0.000200242
3.25727e-07
0.000200228
1.61223e-07
0.000200219
-1.75321e-16
0.000200215
-1.61223e-07
0.000200215
-3.25727e-07
0.000200219
-4.96972e-07
0.000200228
-6.78785e-07
0.000200242
-8.75587e-07
0.000200262
-1.09266e-06
0.000200289
-1.33649e-06
0.000200325
-1.61525e-06
0.000200372
-1.93943e-06
0.000200432
-2.32275e-06
0.000200511
-2.78354e-06
0.000200614
-3.34686e-06
0.000200751
-4.04777e-06
0.000200934
-4.93685e-06
0.000201184
-6.08938e-06
0.000201536
-7.62112e-06
0.000202043
-9.71516e-06
0.0002028
-1.26651e-05
0.000203969
-1.69355e-05
0.000205823
-2.32134e-05
0.000208778
-3.22866e-05
0.000213236
-4.39829e-05
0.000218773
-5.31887e-05
0.000221043
-4.33113e-05
0.000202203
0.000113217
2.84676e-05
8.47491e-05
4.84743e-05
0.000182196
4.98012e-05
0.000219716
4.22068e-05
0.000226368
3.31996e-05
0.000222243
2.5563e-05
0.000216414
1.97345e-05
0.000211652
1.54236e-05
0.000208279
1.22351e-05
0.000205988
9.844e-06
0.000204434
8.01733e-06
0.000203362
6.59464e-06
0.000202607
5.46588e-06
0.000202063
4.55459e-06
0.000201662
3.80656e-06
0.000201362
3.18254e-06
0.000201135
2.65352e-06
0.000200961
2.19764e-06
0.000200828
1.79812e-06
0.000200725
1.44184e-06
0.000200646
1.11835e-06
0.000200586
8.19131e-07
0.000200542
5.37032e-07
0.00020051
2.65856e-07
0.000200491
-2.02168e-16
0.000200481
-2.65856e-07
0.000200481
-5.37032e-07
0.000200491
-8.19131e-07
0.00020051
-1.11835e-06
0.000200542
-1.44184e-06
0.000200586
-1.79812e-06
0.000200646
-2.19764e-06
0.000200725
-2.65352e-06
0.000200828
-3.18254e-06
0.000200961
-3.80656e-06
0.000201135
-4.55459e-06
0.000201362
-5.46588e-06
0.000201662
-6.59464e-06
0.000202063
-8.01733e-06
0.000202607
-9.844e-06
0.000203362
-1.22351e-05
0.000204434
-1.54236e-05
0.000205988
-1.97345e-05
0.000208279
-2.5563e-05
0.000211652
-3.31996e-05
0.000216414
-4.22068e-05
0.000222243
-4.98012e-05
0.000226368
-4.84743e-05
0.000219716
-2.84676e-05
0.000182196
8.47491e-05
1.7619e-05
6.71301e-05
3.82114e-05
0.000161604
4.6649e-05
0.000211279
4.47452e-05
0.000228272
3.82791e-05
0.00022871
3.11286e-05
0.000223565
2.48886e-05
0.000217892
1.98977e-05
0.00021327
1.60228e-05
0.000209863
1.30253e-05
0.000207431
1.06876e-05
0.0002057
8.84076e-06
0.000204454
7.36021e-06
0.000203543
6.15534e-06
0.000202867
5.15994e-06
0.000202358
4.32506e-06
0.00020197
3.61393e-06
0.000201672
2.99854e-06
0.000201443
2.4572e-06
0.000201266
1.97283e-06
0.00020113
1.53177e-06
0.000201027
1.12281e-06
0.000200951
7.36536e-07
0.000200897
3.6474e-07
0.000200862
-1.41646e-16
0.000200846
-3.6474e-07
0.000200846
-7.36536e-07
0.000200862
-1.12281e-06
0.000200897
-1.53177e-06
0.000200951
-1.97283e-06
0.000201027
-2.4572e-06
0.00020113
-2.99854e-06
0.000201266
-3.61393e-06
0.000201443
-4.32506e-06
0.000201672
-5.15994e-06
0.00020197
-6.15534e-06
0.000202358
-7.36021e-06
0.000202867
-8.84076e-06
0.000203543
-1.06876e-05
0.000204454
-1.30253e-05
0.0002057
-1.60228e-05
0.000207431
-1.98977e-05
0.000209863
-2.48886e-05
0.00021327
-3.11286e-05
0.000217892
-3.82791e-05
0.000223565
-4.47452e-05
0.00022871
-4.6649e-05
0.000228272
-3.82114e-05
0.000211279
-1.7619e-05
0.000161604
6.71301e-05
1.11077e-05
5.60224e-05
2.86329e-05
0.000144079
4.01103e-05
0.000199801
4.28016e-05
0.00022558
3.95763e-05
0.000231935
3.3962e-05
0.000229179
2.81515e-05
0.000223703
2.30546e-05
0.000218367
1.88721e-05
0.000214046
1.55218e-05
0.000210782
1.28482e-05
0.000208374
1.07016e-05
0.000206601
8.95989e-06
0.000205285
7.52885e-06
0.000204298
6.33703e-06
0.000203549
5.3303e-06
0.000202977
4.46731e-06
0.000202535
3.71616e-06
0.000202194
3.0519e-06
0.00020193
2.45474e-06
0.000201727
1.90871e-06
0.000201573
1.40068e-06
0.000201459
9.19531e-07
0.000201378
4.55576e-07
0.000201326
-4.63226e-18
0.000201301
-4.55576e-07
0.000201301
-9.19531e-07
0.000201326
-1.40068e-06
0.000201378
-1.90871e-06
0.000201459
-2.45474e-06
0.000201573
-3.0519e-06
0.000201727
-3.71616e-06
0.00020193
-4.46731e-06
0.000202194
-5.3303e-06
0.000202535
-6.33703e-06
0.000202977
-7.52885e-06
0.000203549
-8.95989e-06
0.000204298
-1.07016e-05
0.000205285
-1.28482e-05
0.000206601
-1.55218e-05
0.000208374
-1.88721e-05
0.000210782
-2.30546e-05
0.000214046
-2.81515e-05
0.000218367
-3.3962e-05
0.000223703
-3.95763e-05
0.000229179
-4.28016e-05
0.000231935
-4.01103e-05
0.00022558
-2.86329e-05
0.000199801
-1.11077e-05
0.000144079
5.60224e-05
7.18835e-06
4.88341e-05
2.09598e-05
0.000130307
3.27765e-05
0.000187985
3.83536e-05
0.000220003
3.81238e-05
0.000232165
3.45088e-05
0.000232794
2.96968e-05
0.000228515
2.49518e-05
0.000223112
2.07886e-05
0.000218209
1.73145e-05
0.000214256
1.44687e-05
0.00021122
1.21431e-05
0.000208926
1.02315e-05
0.000207196
8.64459e-06
0.000205885
7.3111e-06
0.000204883
6.17556e-06
0.000204112
5.19481e-06
0.000203516
4.33513e-06
0.000203054
3.56992e-06
0.000202695
2.8779e-06
0.000202419
2.24185e-06
0.000202209
1.64746e-06
0.000202053
1.08262e-06
0.000201943
5.36697e-07
0.000201872
2.40015e-16
0.000201838
-5.36697e-07
0.000201838
-1.08262e-06
0.000201872
-1.64746e-06
0.000201943
-2.24185e-06
0.000202053
-2.8779e-06
0.000202209
-3.56992e-06
0.000202419
-4.33513e-06
0.000202695
-5.19481e-06
0.000203054
-6.17556e-06
0.000203516
-7.3111e-06
0.000204112
-8.64459e-06
0.000204883
-1.02315e-05
0.000205885
-1.21431e-05
0.000207196
-1.44687e-05
0.000208926
-1.73145e-05
0.00021122
-2.07886e-05
0.000214256
-2.49518e-05
0.000218209
-2.96968e-05
0.000223112
-3.45088e-05
0.000228515
-3.81238e-05
0.000232794
-3.83536e-05
0.000232165
-3.27765e-05
0.000220003
-2.09598e-05
0.000187985
-7.18835e-06
0.000130307
4.88341e-05
4.70533e-06
4.41288e-05
1.5148e-05
0.000119864
2.59051e-05
0.000177228
3.28232e-05
0.000213085
3.48728e-05
0.000230115
3.32592e-05
0.000234407
2.97498e-05
0.000232024
2.56917e-05
0.00022717
2.18199e-05
0.000222081
1.8424e-05
0.000217652
1.55546e-05
0.000214089
1.31618e-05
0.000211319
1.11667e-05
0.000209191
9.49193e-06
0.00020756
8.07104e-06
0.000206304
6.85025e-06
0.000205333
5.78688e-06
0.000204579
4.84719e-06
0.000203993
4.00432e-06
0.000203538
3.23673e-06
0.000203187
2.52682e-06
0.000202919
1.85998e-06
0.00020272
1.22372e-06
0.000202579
6.07074e-07
0.000202489
5.4722e-16
0.000202445
-6.07074e-07
0.000202445
-1.22372e-06
0.000202489
-1.85998e-06
0.000202579
-2.52682e-06
0.00020272
-3.23673e-06
0.000202919
-4.00432e-06
0.000203187
-4.84719e-06
0.000203538
-5.78688e-06
0.000203993
-6.85025e-06
0.000204579
-8.07104e-06
0.000205333
-9.49193e-06
0.000206304
-1.11667e-05
0.00020756
-1.31618e-05
0.000209191
-1.55546e-05
0.000211319
-1.8424e-05
0.000214089
-2.18199e-05
0.000217652
-2.56917e-05
0.000222081
-2.97498e-05
0.00022717
-3.32592e-05
0.000232024
-3.48728e-05
0.000234407
-3.28232e-05
0.000230115
-2.59051e-05
0.000213085
-1.5148e-05
0.000177228
-4.70533e-06
0.000119864
4.41288e-05
2.8836e-06
4.12452e-05
1.05791e-05
0.000112169
1.97799e-05
0.000168027
2.7026e-05
0.000205839
3.06028e-05
0.000226538
3.07313e-05
0.000234279
2.85996e-05
0.000234156
2.54275e-05
0.000230342
2.20498e-05
0.000225458
1.8899e-05
0.000220802
1.61353e-05
0.000216853
1.37754e-05
0.000213679
1.17757e-05
0.000211191
1.00762e-05
0.000209259
8.61904e-06
0.000207761
7.35467e-06
0.000206597
6.24275e-06
0.000205691
5.251e-06
0.000204985
4.3536e-06
0.000204436
3.52973e-06
0.000204011
2.76234e-06
0.000203686
2.03719e-06
0.000203445
1.34212e-06
0.000203274
6.66343e-07
0.000203165
9.83441e-16
0.000203111
-6.66343e-07
0.000203111
-1.34212e-06
0.000203165
-2.03719e-06
0.000203274
-2.76234e-06
0.000203445
-3.52973e-06
0.000203686
-4.3536e-06
0.000204011
-5.251e-06
0.000204436
-6.24275e-06
0.000204985
-7.35467e-06
0.000205691
-8.61904e-06
0.000206597
-1.00762e-05
0.000207761
-1.17757e-05
0.000209259
-1.37754e-05
0.000211191
-1.61353e-05
0.000213679
-1.8899e-05
0.000216853
-2.20498e-05
0.000220802
-2.54275e-05
0.000225458
-2.85996e-05
0.000230342
-3.07313e-05
0.000234156
-3.06028e-05
0.000234279
-2.7026e-05
0.000226538
-1.97799e-05
0.000205839
-1.05791e-05
0.000168027
-2.8836e-06
0.000112169
4.12452e-05
1.32837e-06
3.99168e-05
6.54271e-06
0.000106955
1.41253e-05
0.000160444
2.12219e-05
0.000198743
2.57892e-05
0.000221971
2.73515e-05
0.000232717
2.65407e-05
0.000234966
2.43416e-05
0.000232541
2.15902e-05
0.00022821
1.88114e-05
0.000223581
1.62602e-05
0.000219404
1.40193e-05
0.00021592
1.20845e-05
0.000213126
1.04168e-05
0.000210927
8.96942e-06
0.000209208
7.69927e-06
0.000207867
6.56995e-06
0.000206821
5.55194e-06
0.000206003
4.62152e-06
0.000205366
3.75949e-06
0.000204873
2.95012e-06
0.000204496
2.18023e-06
0.000204215
1.43847e-06
0.000204016
7.14811e-07
0.000203888
1.4941e-15
0.000203826
-7.14811e-07
0.000203826
-1.43847e-06
0.000203888
-2.18023e-06
0.000204016
-2.95012e-06
0.000204215
-3.75949e-06
0.000204496
-4.62152e-06
0.000204873
-5.55194e-06
0.000205366
-6.56995e-06
0.000206003
-7.69927e-06
0.000206821
-8.96942e-06
0.000207867
-1.04168e-05
0.000209208
-1.20845e-05
0.000210927
-1.40193e-05
0.000213126
-1.62602e-05
0.00021592
-1.88114e-05
0.000219404
-2.15902e-05
0.000223581
-2.43416e-05
0.00022821
-2.65407e-05
0.000232541
-2.73515e-05
0.000234966
-2.57892e-05
0.000232717
-2.12219e-05
0.000221971
-1.41253e-05
0.000198743
-6.54271e-06
0.000160444
-1.32837e-06
0.000106955
3.99168e-05
-2.31752e-06
4.22343e-05
-5.27017e-08
0.00010469
5.92188e-06
0.00015447
1.2547e-05
0.000192117
1.76059e-05
0.000216912
2.02285e-05
0.000230094
2.06202e-05
0.000234575
1.95e-05
0.000233662
1.7615e-05
0.000230095
1.55042e-05
0.000225692
1.3469e-05
0.000221439
1.16367e-05
0.000217752
1.00351e-05
0.000214728
8.64665e-06
0.000212315
7.43908e-06
0.000210416
6.379e-06
0.000208928
5.43716e-06
0.000207762
4.58936e-06
0.000206851
3.81595e-06
0.00020614
3.10095e-06
0.000205588
2.43113e-06
0.000205166
1.79532e-06
0.000204851
1.18386e-06
0.000204627
5.88085e-07
0.000204484
1.74034e-15
0.000204414
-5.88085e-07
0.000204414
-1.18386e-06
0.000204484
-1.79532e-06
0.000204627
-2.43113e-06
0.000204851
-3.10095e-06
0.000205166
-3.81595e-06
0.000205588
-4.58936e-06
0.00020614
-5.43716e-06
0.000206851
-6.379e-06
0.000207762
-7.43908e-06
0.000208928
-8.64665e-06
0.000210416
-1.00351e-05
0.000212315
-1.16367e-05
0.000214728
-1.3469e-05
0.000217752
-1.55042e-05
0.000221439
-1.7615e-05
0.000225692
-1.95e-05
0.000230095
-2.06202e-05
0.000233662
-2.02285e-05
0.000234575
-1.76059e-05
0.000230094
-1.2547e-05
0.000216912
-5.92188e-06
0.000192117
5.27017e-08
0.00015447
2.31752e-06
0.00010469
4.22343e-05
1.02377e-05
3.19966e-05
2.68447e-05
8.80827e-05
4.33499e-05
0.000137964
5.65119e-05
0.000178955
6.48126e-05
0.000208611
6.81137e-05
0.000226793
6.73508e-05
0.000235338
6.39389e-05
0.000237074
5.92009e-05
0.000234833
5.40652e-05
0.000230828
4.90386e-05
0.000226466
4.43235e-05
0.000222467
3.99541e-05
0.000219097
3.58935e-05
0.000216376
3.20855e-05
0.000214224
2.84766e-05
0.000212536
2.50228e-05
0.000211216
2.16891e-05
0.000210185
1.84484e-05
0.00020938
1.52793e-05
0.000208757
1.21647e-05
0.00020828
9.09062e-06
0.000207925
6.0452e-06
0.000207673
3.01813e-06
0.000207511
1.99426e-15
0.000207432
-3.01813e-06
0.000207432
-6.0452e-06
0.000207511
-9.09062e-06
0.000207673
-1.21647e-05
0.000207925
-1.52793e-05
0.00020828
-1.84484e-05
0.000208757
-2.16891e-05
0.00020938
-2.50228e-05
0.000210185
-2.84766e-05
0.000211216
-3.20855e-05
0.000212536
-3.58935e-05
0.000214224
-3.99541e-05
0.000216376
-4.43235e-05
0.000219097
-4.90386e-05
0.000222467
-5.40652e-05
0.000226466
-5.92009e-05
0.000230828
-6.39389e-05
0.000234833
-6.73508e-05
0.000237074
-6.81137e-05
0.000235338
-6.48126e-05
0.000226793
-5.65119e-05
0.000208611
-4.33499e-05
0.000178955
-2.68447e-05
0.000137964
-1.02377e-05
8.80827e-05
3.19966e-05
2.63524e-05
5.64415e-06
6.52236e-05
4.92115e-05
0.000101976
0.000101212
0.000130562
0.000150369
0.000148701
0.000190472
0.000156609
0.000218886
0.000156145
0.000235801
0.000149915
0.000243304
0.000140437
0.000244311
0.000129627
0.000241637
0.00011866
0.000237432
0.000108097
0.000233031
9.81067e-05
0.000229087
8.86652e-05
0.000225817
7.96794e-05
0.00022321
7.10487e-05
0.000221167
6.26873e-05
0.000219578
5.4528e-05
0.000218344
4.652e-05
0.000217388
3.86248e-05
0.000216652
3.08132e-05
0.000216092
2.3062e-05
0.000215676
1.53528e-05
0.000215382
7.66999e-06
0.000215194
1.53692e-15
0.000215102
-7.66999e-06
0.000215102
-1.53528e-05
0.000215194
-2.3062e-05
0.000215382
-3.08132e-05
0.000215676
-3.86248e-05
0.000216092
-4.652e-05
0.000216652
-5.4528e-05
0.000217388
-6.26873e-05
0.000218344
-7.10487e-05
0.000219578
-7.96794e-05
0.000221167
-8.86652e-05
0.00022321
-9.81067e-05
0.000225817
-0.000108097
0.000229087
-0.00011866
0.000233031
-0.000129627
0.000237432
-0.000140437
0.000241637
-0.000149915
0.000244311
-0.000156145
0.000243304
-0.000156609
0.000235801
-0.000148701
0.000218886
-0.000130562
0.000190472
-0.000101976
0.000150369
-6.52236e-05
0.000101212
-2.63524e-05
4.92115e-05
5.64415e-06
7.85734e-06
-2.21319e-06
3.56561e-05
2.14128e-05
7.24986e-05
6.43696e-05
0.00010779
0.000115077
0.000135046
0.000163216
0.000151719
0.000202213
0.000158162
0.000229358
0.000156455
0.000245011
0.000149304
0.000251462
0.000139201
0.00025174
0.00012797
0.000248664
0.000116684
0.000244316
0.000105832
0.00023994
9.55387e-05
0.00023611
8.57623e-05
0.000232986
7.64051e-05
0.000230524
6.73688e-05
0.000228614
5.85724e-05
0.00022714
4.99539e-05
0.000226007
4.14664e-05
0.000225139
3.30748e-05
0.000224483
2.47521e-05
0.000223999
1.64768e-05
0.000223657
8.23125e-06
0.000223439
1.53243e-15
0.000223334
-8.23125e-06
0.000223334
-1.64768e-05
0.000223439
-2.47521e-05
0.000223657
-3.30748e-05
0.000223999
-4.14664e-05
0.000224483
-4.99539e-05
0.000225139
-5.85724e-05
0.000226007
-6.73688e-05
0.00022714
-7.64051e-05
0.000228614
-8.57623e-05
0.000230524
-9.55387e-05
0.000232986
-0.000105832
0.00023611
-0.000116684
0.00023994
-0.00012797
0.000244316
-0.000139201
0.000248664
-0.000149304
0.00025174
-0.000156455
0.000251462
-0.000158162
0.000245011
-0.000151719
0.000229358
-0.000135046
0.000202213
-0.00010779
0.000163216
-7.24986e-05
0.000115077
-3.56561e-05
6.43696e-05
-7.85734e-06
2.14128e-05
-2.21319e-06
9.80141e-07
-3.19333e-06
1.47608e-05
7.63215e-06
4.12898e-05
3.78406e-05
7.35817e-05
8.27854e-05
0.000103795
0.000133003
0.000126576
0.000179432
0.000139801
0.000216133
0.000143964
0.000240848
0.000141093
0.000254333
0.000133683
0.000259149
0.000123933
0.000258414
0.000113382
0.000254868
0.000102889
0.000250432
9.28149e-05
0.000246184
8.32293e-05
0.000242572
7.40757e-05
0.000239678
6.52638e-05
0.000237426
5.6709e-05
0.000235695
4.8344e-05
0.000234372
4.01177e-05
0.000233366
3.19922e-05
0.000232609
2.39383e-05
0.000232053
1.59336e-05
0.000231662
7.95943e-06
0.000231414
1.44981e-15
0.000231293
-7.95943e-06
0.000231293
-1.59336e-05
0.000231414
-2.39383e-05
0.000231662
-3.19922e-05
0.000232053
-4.01177e-05
0.000232609
-4.8344e-05
0.000233366
-5.6709e-05
0.000234372
-6.52638e-05
0.000235695
-7.40757e-05
0.000237426
-8.32293e-05
0.000239678
-9.28149e-05
0.000242572
-0.000102889
0.000246184
-0.000113382
0.000250432
-0.000123933
0.000254868
-0.000133683
0.000258414
-0.000141093
0.000259149
-0.000143964
0.000254333
-0.000139801
0.000240848
-0.000126576
0.000216133
-0.000103795
0.000179432
-7.35817e-05
0.000133003
-4.12898e-05
8.27854e-05
-1.47608e-05
3.78406e-05
-9.80141e-07
7.63215e-06
-3.19333e-06
-7.38256e-08
-3.1195e-06
6.43325e-06
1.12507e-06
2.36082e-05
2.06656e-05
4.96846e-05
5.6709e-05
7.88431e-05
0.000103845
0.000104824
0.000153451
0.000123412
0.000197545
0.000133157
0.000231103
0.000134864
0.000252626
0.000130586
0.000263428
0.000122636
0.000266363
0.000112933
0.00026457
0.000102741
0.000260625
9.2716e-05
0.000256209
8.30981e-05
0.000252189
7.39063e-05
0.00024887
6.50733e-05
0.000246259
5.65162e-05
0.000244252
4.8163e-05
0.000242725
3.99581e-05
0.000241571
3.18597e-05
0.000240707
2.38366e-05
0.000240076
1.58648e-05
0.000239634
7.92479e-06
0.000239354
1.39259e-15
0.000239218
-7.92479e-06
0.000239218
-1.58648e-05
0.000239354
-2.38366e-05
0.000239634
-3.18597e-05
0.000240076
-3.99581e-05
0.000240707
-4.8163e-05
0.000241571
-5.65162e-05
0.000242725
-6.50733e-05
0.000244252
-7.39063e-05
0.000246259
-8.30981e-05
0.00024887
-9.2716e-05
0.000252189
-0.000102741
0.000256209
-0.000112933
0.000260625
-0.000122636
0.00026457
-0.000130586
0.000266363
-0.000134864
0.000263428
-0.000133157
0.000252626
-0.000123412
0.000231103
-0.000104824
0.000197545
-7.88431e-05
0.000153451
-4.96846e-05
0.000103845
-2.36082e-05
5.6709e-05
-6.43325e-06
2.06656e-05
7.38256e-08
1.12507e-06
-3.1195e-06
-2.17633e-07
-2.90187e-06
2.84724e-06
-1.9398e-06
1.32989e-05
1.02139e-05
3.25143e-05
3.74936e-05
5.77918e-05
7.8567e-05
8.39171e-05
0.000127326
0.000105789
0.000175673
0.00012026
0.000216632
0.000126604
0.000246282
0.000125967
0.000264065
0.000120404
0.000271926
0.000112014
0.000272961
0.00010241
0.000270228
9.2582e-05
0.000266038
8.2994e-05
0.000261777
7.37842e-05
0.00025808
6.49335e-05
0.00025511
5.63715e-05
0.000252814
4.80255e-05
0.000251071
3.9836e-05
0.00024976
3.17582e-05
0.000248785
2.37588e-05
0.000248075
1.58122e-05
0.00024758
7.89832e-06
0.000247268
1.33296e-15
0.000247116
-7.89832e-06
0.000247116
-1.58122e-05
0.000247268
-2.37588e-05
0.00024758
-3.17582e-05
0.000248075
-3.9836e-05
0.000248785
-4.80255e-05
0.00024976
-5.63715e-05
0.000251071
-6.49335e-05
0.000252814
-7.37842e-05
0.00025511
-8.2994e-05
0.00025808
-9.2582e-05
0.000261777
-0.00010241
0.000266038
-0.000112014
0.000270228
-0.000120404
0.000272961
-0.000125967
0.000271926
-0.000126604
0.000264065
-0.00012026
0.000246282
-0.000105789
0.000216632
-8.39171e-05
0.000175673
-5.77918e-05
0.000127326
-3.25143e-05
7.8567e-05
-1.32989e-05
3.74936e-05
-2.84724e-06
1.02139e-05
2.17633e-07
-1.9398e-06
-2.90187e-06
-1.18734e-07
-2.78314e-06
1.41814e-06
-3.47667e-06
7.6063e-06
4.02579e-06
2.08657e-05
2.42342e-05
4.09566e-05
5.84761e-05
6.46633e-05
0.00010362
8.73247e-05
0.000153011
0.000104897
0.00019906
0.000115259
0.00023592
0.000118379
0.000260946
0.000115675
0.00027463
0.000109127
0.000279509
0.00010055
0.000278805
9.12277e-05
0.00027536
8.18789e-05
0.000271126
7.28002e-05
0.000267158
6.40504e-05
0.00026386
5.55881e-05
0.000261277
4.73471e-05
0.000259312
3.92674e-05
0.00025784
3.13022e-05
0.00025675
2.34164e-05
0.000255961
1.5584e-05
0.000255413
7.7842e-06
0.000255067
1.18652e-15
0.0002549
-7.7842e-06
0.0002549
-1.5584e-05
0.000255067
-2.34164e-05
0.000255413
-3.13022e-05
0.000255961
-3.92674e-05
0.00025675
-4.73471e-05
0.00025784
-5.55881e-05
0.000259312
-6.40504e-05
0.000261277
-7.28002e-05
0.00026386
-8.18789e-05
0.000267158
-9.12277e-05
0.000271126
-0.00010055
0.00027536
-0.000109127
0.000278805
-0.000115675
0.000279509
-0.000118379
0.00027463
-0.000115259
0.000260946
-0.000104897
0.00023592
-8.73247e-05
0.00019906
-6.46633e-05
0.000153011
-4.09566e-05
0.00010362
-2.08657e-05
5.84761e-05
-7.6063e-06
2.42342e-05
-1.41814e-06
4.02579e-06
1.18734e-07
-3.47667e-06
-2.78314e-06
-4.99056e-09
-2.77815e-06
9.2138e-07
-4.40305e-06
4.67989e-06
2.67282e-07
1.35799e-05
1.53343e-05
2.86888e-05
4.33671e-05
4.86859e-05
8.36225e-05
7.01417e-05
0.000131555
8.90201e-05
0.000180182
0.0001023
0.00022264
0.000108808
0.000254438
0.000109096
0.000274342
0.000104741
0.000283864
9.75527e-05
0.000285993
8.902e-05
0.000283892
8.01022e-05
0.000280044
7.12801e-05
0.00027598
6.27191e-05
0.000272421
5.44259e-05
0.00026957
4.63512e-05
0.000267387
3.84382e-05
0.000265753
3.064e-05
0.000264549
2.29208e-05
0.00026368
1.52541e-05
0.000263079
7.61946e-06
0.000262702
1.0398e-15
0.00026252
-7.61946e-06
0.00026252
-1.52541e-05
0.000262702
-2.29208e-05
0.000263079
-3.064e-05
0.00026368
-3.84382e-05
0.000264549
-4.63512e-05
0.000265753
-5.44259e-05
0.000267387
-6.27191e-05
0.00026957
-7.12801e-05
0.000272421
-8.01022e-05
0.00027598
-8.902e-05
0.000280044
-9.75527e-05
0.000283892
-0.000104741
0.000285993
-0.000109096
0.000283864
-0.000108808
0.000274342
-0.0001023
0.000254438
-8.90201e-05
0.00022264
-7.01417e-05
0.000180182
-4.86859e-05
0.000131555
-2.86888e-05
8.36225e-05
-1.35799e-05
4.33671e-05
-4.67989e-06
1.53343e-05
-9.2138e-07
2.67282e-07
4.99058e-09
-4.40305e-06
-2.77815e-06
5.21578e-08
-2.8303e-06
7.38657e-07
-5.08954e-06
3.17087e-06
-2.16493e-06
9.13731e-06
9.36781e-06
2.0116e-05
3.23884e-05
3.60894e-05
6.76491e-05
5.50352e-05
0.00011261
7.35915e-05
0.000161625
8.84636e-05
0.000207768
9.76248e-05
0.000245277
0.000100722
0.000271245
9.87247e-05
0.00028586
9.32215e-05
0.000291497
8.57642e-05
0.00029135
7.74984e-05
0.00028831
6.90896e-05
0.000284389
6.08301e-05
0.00028068
5.27945e-05
0.000277605
4.49624e-05
0.000275219
3.72867e-05
0.000273429
2.97226e-05
0.000272113
2.22352e-05
0.000271167
1.47983e-05
0.000270516
7.39197e-06
0.000270108
9.30056e-16
0.000269912
-7.39197e-06
0.000269912
-1.47983e-05
0.000270108
-2.22352e-05
0.000270516
-2.97226e-05
0.000271167
-3.72867e-05
0.000272113
-4.49624e-05
0.000273429
-5.27945e-05
0.000275219
-6.08301e-05
0.000277605
-6.90896e-05
0.00028068
-7.74984e-05
0.000284389
-8.57642e-05
0.00028831
-9.32215e-05
0.00029135
-9.87247e-05
0.000291497
-0.000100722
0.00028586
-9.76248e-05
0.000271245
-8.84636e-05
0.000245277
-7.35915e-05
0.000207768
-5.50352e-05
0.000161625
-3.60894e-05
0.00011261
-2.0116e-05
6.76491e-05
-9.13731e-06
3.23884e-05
-3.17087e-06
9.36781e-06
-7.38657e-07
-2.16493e-06
-5.21578e-08
-5.08954e-06
-2.8303e-06
6.32149e-08
-2.89352e-06
6.32271e-07
-5.6586e-06
2.32427e-06
-3.85693e-06
6.37804e-06
5.31404e-06
1.41868e-05
2.45797e-05
2.6412e-05
5.54239e-05
4.22047e-05
9.68171e-05
5.91833e-05
0.000144647
7.43241e-05
0.000192627
8.51697e-05
0.000234432
9.0607e-05
0.000265808
9.09167e-05
0.000285551
8.72859e-05
0.000295127
8.11669e-05
0.000297469
7.3797e-05
0.00029568
6.59949e-05
0.000292191
5.81854e-05
0.00028849
5.05268e-05
0.000285264
4.30406e-05
0.000282705
3.56973e-05
0.000280772
2.84585e-05
0.000279351
2.12913e-05
0.000278334
1.41711e-05
0.000277637
7.07896e-06
0.0002772
8.10331e-16
0.000276991
-7.07896e-06
0.000276991
-1.41711e-05
0.0002772
-2.12913e-05
0.000277637
-2.84585e-05
0.000278334
-3.56973e-05
0.000279351
-4.30406e-05
0.000280772
-5.05268e-05
0.000282705
-5.81854e-05
0.000285264
-6.59949e-05
0.00028849
-7.3797e-05
0.000292191
-8.11669e-05
0.00029568
-8.72859e-05
0.000297469
-9.09167e-05
0.000295127
-9.0607e-05
0.000285551
-8.51697e-05
0.000265808
-7.43241e-05
0.000234432
-5.91833e-05
0.000192627
-4.22047e-05
0.000144647
-2.6412e-05
9.68171e-05
-1.41868e-05
5.54239e-05
-6.37804e-06
2.45797e-05
-2.32427e-06
5.31404e-06
-6.32271e-07
-3.85693e-06
-6.32149e-08
-5.6586e-06
-2.89352e-06
5.04697e-08
-2.94399e-06
5.27858e-07
-6.13599e-06
1.757e-06
-5.08607e-06
4.53211e-06
2.53892e-06
9.96391e-06
1.91479e-05
1.89385e-05
4.64492e-05
3.13997e-05
8.43559e-05
4.59459e-05
0.0001301
6.01759e-05
0.000178397
7.16313e-05
0.000222976
7.87112e-05
0.000258728
8.10561e-05
0.000283206
7.93456e-05
0.000296838
7.47789e-05
0.000302035
6.85622e-05
0.000301897
6.16039e-05
0.00029915
5.44442e-05
0.000295649
4.73312e-05
0.000292377
4.034e-05
0.000289696
3.34672e-05
0.000287645
2.66858e-05
0.000286133
1.99681e-05
0.000285052
1.32919e-05
0.000284313
6.6402e-06
0.000283852
6.9004e-16
0.000283631
-6.6402e-06
0.000283631
-1.32919e-05
0.000283852
-1.99681e-05
0.000284313
-2.66858e-05
0.000285052
-3.34672e-05
0.000286133
-4.034e-05
0.000287645
-4.73312e-05
0.000289696
-5.44442e-05
0.000292377
-6.16039e-05
0.000295649
-6.85622e-05
0.00029915
-7.47789e-05
0.000301897
-7.93456e-05
0.000302035
-8.10561e-05
0.000296838
-7.87112e-05
0.000283206
-7.16313e-05
0.000258728
-6.01759e-05
0.000222976
-4.59459e-05
0.000178397
-3.13997e-05
0.0001301
-1.89385e-05
8.43559e-05
-9.96391e-06
4.64492e-05
-4.53211e-06
1.91479e-05
-1.757e-06
2.53892e-06
-5.27857e-07
-5.08607e-06
-5.04697e-08
-6.13599e-06
-2.94399e-06
2.83139e-08
-2.9723e-06
4.02951e-07
-6.51063e-06
1.2743e-06
-5.95743e-06
3.11019e-06
7.03042e-07
6.70416e-06
1.55539e-05
1.29053e-05
4.02481e-05
2.20947e-05
7.51665e-05
3.36754e-05
0.00011852
4.60122e-05
0.00016606
5.6992e-05
0.000211996
6.48506e-05
0.000250869
6.87484e-05
0.000279308
6.88432e-05
0.000296743
6.59646e-05
0.000304914
6.11567e-05
0.000306704
5.5325e-05
0.000304981
4.90808e-05
0.000301893
4.27526e-05
0.000298705
3.64742e-05
0.000295975
3.02766e-05
0.000293842
2.415e-05
0.000292259
1.8075e-05
0.000291127
1.20336e-05
0.000290354
6.01223e-06
0.000289873
6.69075e-16
0.000289643
-6.01223e-06
0.000289643
-1.20336e-05
0.000289873
-1.8075e-05
0.000290354
-2.415e-05
0.000291127
-3.02766e-05
0.000292259
-3.64742e-05
0.000293842
-4.27526e-05
0.000295975
-4.90808e-05
0.000298705
-5.5325e-05
0.000301893
-6.11567e-05
0.000304981
-6.59646e-05
0.000306704
-6.88432e-05
0.000304914
-6.87484e-05
0.000296743
-6.48506e-05
0.000279308
-5.6992e-05
0.000250869
-4.60122e-05
0.000211996
-3.36754e-05
0.00016606
-2.20947e-05
0.00011852
-1.29053e-05
7.51665e-05
-6.70416e-06
4.02481e-05
-3.11019e-06
1.55539e-05
-1.2743e-06
7.03042e-07
-4.02951e-07
-5.95743e-06
-2.83139e-08
-6.51063e-06
-2.9723e-06
5.72025e-09
-2.97802e-06
2.50311e-07
-6.75522e-06
7.69603e-07
-6.47672e-06
1.79814e-06
-3.25492e-07
3.84753e-06
1.35045e-05
7.61365e-06
3.6482e-05
1.36585e-05
6.91216e-05
2.19578e-05
0.00011022
3.16252e-05
0.000156393
4.11096e-05
0.000202512
4.87905e-05
0.000243188
5.35778e-05
0.000274521
5.5184e-05
0.000295137
5.40141e-05
0.000306084
5.08352e-05
0.000309883
4.644e-05
0.000309376
4.14411e-05
0.000306892
3.62164e-05
0.00030393
3.09522e-05
0.000301239
2.57176e-05
0.000299077
2.05252e-05
0.000297452
1.53676e-05
0.000296285
1.02337e-05
0.000295488
5.11364e-06
0.000294994
7.92394e-16
0.000294757
-5.11364e-06
0.000294757
-1.02337e-05
0.000294994
-1.53676e-05
0.000295488
-2.05252e-05
0.000296285
-2.57176e-05
0.000297452
-3.09522e-05
0.000299077
-3.62164e-05
0.000301239
-4.14411e-05
0.00030393
-4.644e-05
0.000306892
-5.08352e-05
0.000309376
-5.40141e-05
0.000309883
-5.5184e-05
0.000306084
-5.35778e-05
0.000295137
-4.87905e-05
0.000274521
-4.11096e-05
0.000243188
-3.16252e-05
0.000202512
-2.19578e-05
0.000156393
-1.36585e-05
0.00011022
-7.61365e-06
6.91216e-05
-3.84753e-06
3.6482e-05
-1.79814e-06
1.35045e-05
-7.69603e-07
-3.25492e-07
-2.50311e-07
-6.47672e-06
-5.72024e-09
-6.75522e-06
-2.97802e-06
-1.15045e-08
-2.96652e-06
6.73541e-08
-6.83407e-06
1.82489e-07
-6.59185e-06
3.99006e-07
-5.4201e-07
1.00398e-06
1.28995e-05
2.51754e-06
3.49685e-05
5.53567e-06
6.61035e-05
1.03995e-05
0.000105357
1.68568e-05
0.000149935
2.39983e-05
0.000195371
3.05747e-05
0.000236612
3.54865e-05
0.000269609
3.81464e-05
0.000292477
3.85539e-05
0.000305677
3.71274e-05
0.00031131
3.44457e-05
0.000312058
3.10377e-05
0.0003103
2.72793e-05
0.000307688
2.33883e-05
0.00030513
1.9467e-05
0.000302998
1.55521e-05
0.000301367
1.16512e-05
0.000300186
7.76174e-06
0.000299378
3.87927e-06
0.000298876
1.0796e-15
0.000298636
-3.87927e-06
0.000298636
-7.76174e-06
0.000298876
-1.16512e-05
0.000299378
-1.55521e-05
0.000300186
-1.9467e-05
0.000301367
-2.33883e-05
0.000302998
-2.72793e-05
0.00030513
-3.10377e-05
0.000307688
-3.44457e-05
0.0003103
-3.71274e-05
0.000312058
-3.85539e-05
0.00031131
-3.81464e-05
0.000305677
-3.54865e-05
0.000292477
-3.05747e-05
0.000269609
-2.39983e-05
0.000236612
-1.68568e-05
0.000195371
-1.03995e-05
0.000149935
-5.53567e-06
0.000105357
-2.51754e-06
6.61035e-05
-1.00398e-06
3.49685e-05
-3.99006e-07
1.28995e-05
-1.82489e-07
-5.4201e-07
-6.7354e-08
-6.59185e-06
1.15045e-08
-6.83407e-06
-2.96652e-06
-2.27044e-08
-2.94381e-06
-1.47888e-07
-6.70889e-06
-5.132e-07
-6.22654e-06
-1.1811e-06
1.25887e-07
-2.02797e-06
1.37464e-05
-2.67717e-06
3.56176e-05
-2.5528e-06
6.59791e-05
-1.09478e-06
0.000103899
1.92966e-06
0.000146911
6.2144e-06
0.000191086
1.09856e-05
0.00023184
1.53201e-05
0.000265274
1.84979e-05
0.000289299
2.01971e-05
0.000303977
2.04822e-05
0.000311025
1.96565e-05
0.000312884
1.80909e-05
0.000311866
1.61018e-05
0.000309677
1.39041e-05
0.000307328
1.16188e-05