/*--------------------------------*- C++ -*----------------------------------*\
  =========                 |
  \\      /  F ield         | OpenFOAM: The Open Source CFD Toolbox
   \\    /   O peration     | Website:  https://openfoam.org
    \\  /    A nd           | Version:  6
     \\/     M anipulation  |
\*---------------------------------------------------------------------------*/
FoamFile
{
    version     2.0;
    format      ascii;
    class       volVectorField;
    location    "3200";
    object      U;
}
// * * * * * * * * * * * * * * * * * * * * * * * * * * * * * * * * * * * * * //

dimensions      [0 1 -1 0 0 0 0];

internalField   nonuniform List<vector> 
2500
(
(0.0867336 0.786808 0)
(0.169899 1.02491 0)
(0.118361 1.01949 0)
(0.0683512 1.00789 0)
(0.0433638 1.00392 0)
(0.0297712 1.00218 0)
(0.0213953 1.00128 0)
(0.0159986 1.00082 0)
(0.0123598 1.00057 0)
(0.00978058 1.00041 0)
(0.00787674 1.00031 0)
(0.00642735 1.00024 0)
(0.00529626 1.00019 0)
(0.00439498 1.00016 0)
(0.0036635 1.00013 0)
(0.00305966 1.00011 0)
(0.00255294 1.00009 0)
(0.00212067 1.00008 0)
(0.00174571 1.00007 0)
(0.0014148 1.00006 0)
(0.0011175 1.00006 0)
(0.000845406 1.00005 0)
(0.000591602 1.00005 0)
(0.000350184 1.00005 0)
(0.000115944 1.00005 0)
(-0.000115944 1.00005 0)
(-0.000350184 1.00005 0)
(-0.000591602 1.00005 0)
(-0.000845406 1.00005 0)
(-0.0011175 1.00006 0)
(-0.0014148 1.00006 0)
(-0.00174571 1.00007 0)
(-0.00212067 1.00008 0)
(-0.00255294 1.00009 0)
(-0.00305966 1.00011 0)
(-0.0036635 1.00013 0)
(-0.00439498 1.00016 0)
(-0.00529626 1.00019 0)
(-0.00642735 1.00024 0)
(-0.00787674 1.00031 0)
(-0.00978058 1.00041 0)
(-0.0123598 1.00057 0)
(-0.0159986 1.00082 0)
(-0.0213953 1.00128 0)
(-0.0297712 1.00218 0)
(-0.0433638 1.00392 0)
(-0.0683512 1.00789 0)
(-0.118361 1.01949 0)
(-0.169899 1.02491 0)
(-0.0867336 0.786808 0)
(0.0926868 0.64798 0)
(0.24447 1.04592 0)
(0.221887 1.08919 0)
(0.162032 1.06326 0)
(0.116425 1.03949 0)
(0.0845364 1.02443 0)
(0.0625176 1.01552 0)
(0.0474256 1.01032 0)
(0.0368646 1.00719 0)
(0.0292378 1.00522 0)
(0.0235644 1.00391 0)
(0.0192327 1.00302 0)
(0.0158491 1.00238 0)
(0.0131524 1.00191 0)
(0.010964 1.00157 0)
(0.00915743 1.0013 0)
(0.00764143 1.0011 0)
(0.00634812 1.00095 0)
(0.00522613 1.00083 0)
(0.00423581 1.00074 0)
(0.00334594 1.00067 0)
(0.00253141 1.00062 0)
(0.00177152 1.00058 0)
(0.00104865 1.00056 0)
(0.000347207 1.00055 0)
(-0.000347207 1.00055 0)
(-0.00104865 1.00056 0)
(-0.00177152 1.00058 0)
(-0.00253141 1.00062 0)
(-0.00334594 1.00067 0)
(-0.00423581 1.00074 0)
(-0.00522613 1.00083 0)
(-0.00634812 1.00095 0)
(-0.00764143 1.0011 0)
(-0.00915743 1.0013 0)
(-0.010964 1.00157 0)
(-0.0131524 1.00191 0)
(-0.0158491 1.00238 0)
(-0.0192327 1.00302 0)
(-0.0235644 1.00391 0)
(-0.0292378 1.00522 0)
(-0.0368646 1.00719 0)
(-0.0474256 1.01032 0)
(-0.0625176 1.01552 0)
(-0.0845364 1.02443 0)
(-0.116425 1.03949 0)
(-0.162032 1.06326 0)
(-0.221887 1.08919 0)
(-0.24447 1.04592 0)
(-0.0926868 0.64798 0)
(0.0482257 0.498367 0)
(0.19485 0.97283 0)
(0.227905 1.11382 0)
(0.201685 1.11851 0)
(0.161762 1.08942 0)
(0.125024 1.06159 0)
(0.0961095 1.04183 0)
(0.074649 1.02891 0)
(0.0588455 1.02056 0)
(0.047074 1.01508 0)
(0.038152 1.01137 0)
(0.0312593 1.00878 0)
(0.0258333 1.00693 0)
(0.0214853 1.00558 0)
(0.0179423 1.00456 0)
(0.0150083 1.0038 0)
(0.0125394 1.00322 0)
(0.0104282 1.00277 0)
(0.00859283 1.00242 0)
(0.00696977 1.00216 0)
(0.00550892 1.00195 0)
(0.00416985 1.00181 0)
(0.00291917 1.0017 0)
(0.0017284 1.00163 0)
(0.000572343 1.0016 0)
(-0.000572343 1.0016 0)
(-0.0017284 1.00163 0)
(-0.00291917 1.0017 0)
(-0.00416985 1.00181 0)
(-0.00550892 1.00195 0)
(-0.00696977 1.00216 0)
(-0.00859283 1.00242 0)
(-0.0104282 1.00277 0)
(-0.0125394 1.00322 0)
(-0.0150083 1.0038 0)
(-0.0179423 1.00456 0)
(-0.0214853 1.00558 0)
(-0.0258333 1.00693 0)
(-0.0312593 1.00878 0)
(-0.038152 1.01137 0)
(-0.047074 1.01508 0)
(-0.0588455 1.02056 0)
(-0.074649 1.02891 0)
(-0.0961095 1.04183 0)
(-0.125024 1.06159 0)
(-0.161762 1.08942 0)
(-0.201685 1.11851 0)
(-0.227905 1.11382 0)
(-0.19485 0.97283 0)
(-0.0482257 0.498367 0)
(0.0214979 0.374316 0)
(0.134541 0.859398 0)
(0.197375 1.0846 0)
(0.204826 1.14381 0)
(0.181447 1.13136 0)
(0.149386 1.10119 0)
(0.119688 1.0737 0)
(0.0954822 1.05319 0)
(0.0765947 1.03885 0)
(0.0620055 1.02894 0)
(0.0506818 1.02203 0)
(0.0417896 1.01713 0)
(0.0347067 1.01358 0)
(0.0289806 1.01096 0)
(0.0242816 1.00899 0)
(0.0203674 1.0075 0)
(0.0170571 1.00636 0)
(0.0142137 1.00548 0)
(0.0117319 1.0048 0)
(0.00952932 1.00428 0)
(0.00754065 1.00388 0)
(0.0057129 1.00359 0)
(0.00400209 1.00339 0)
(0.00237063 1.00326 0)
(0.000785182 1.00319 0)
(-0.000785182 1.00319 0)
(-0.00237063 1.00326 0)
(-0.00400209 1.00339 0)
(-0.0057129 1.00359 0)
(-0.00754065 1.00388 0)
(-0.00952932 1.00428 0)
(-0.0117319 1.0048 0)
(-0.0142137 1.00548 0)
(-0.0170571 1.00636 0)
(-0.0203674 1.0075 0)
(-0.0242816 1.00899 0)
(-0.0289806 1.01096 0)
(-0.0347067 1.01358 0)
(-0.0417896 1.01713 0)
(-0.0506818 1.02203 0)
(-0.0620055 1.02894 0)
(-0.0765947 1.03885 0)
(-0.0954822 1.05319 0)
(-0.119688 1.0737 0)
(-0.149386 1.10119 0)
(-0.181447 1.13136 0)
(-0.204826 1.14381 0)
(-0.197375 1.0846 0)
(-0.134541 0.859398 0)
(-0.0214979 0.374316 0)
(0.0109356 0.30217 0)
(0.089858 0.759306 0)
(0.158419 1.02944 0)
(0.187665 1.13954 0)
(0.182267 1.15585 0)
(0.159887 1.13426 0)
(0.133676 1.10493 0)
(0.109679 1.07922 0)
(0.0896561 1.05954 0)
(0.0735433 1.04518 0)
(0.0607008 1.03482 0)
(0.0504304 1.0273 0)
(0.0421403 1.02177 0)
(0.0353682 1.01765 0)
(0.0297629 1.01454 0)
(0.025059 1.01216 0)
(0.0210542 1.01034 0)
(0.0175934 1.00893 0)
(0.0145559 1.00784 0)
(0.0118467 1.00701 0)
(0.00938966 1.00637 0)
(0.00712286 1.0059 0)
(0.00499456 1.00557 0)
(0.00296038 1.00536 0)
(0.000980822 1.00526 0)
(-0.000980822 1.00526 0)
(-0.00296038 1.00536 0)
(-0.00499456 1.00557 0)
(-0.00712286 1.0059 0)
(-0.00938966 1.00637 0)
(-0.0118467 1.00701 0)
(-0.0145559 1.00784 0)
(-0.0175934 1.00893 0)
(-0.0210542 1.01034 0)
(-0.025059 1.01216 0)
(-0.0297629 1.01454 0)
(-0.0353682 1.01765 0)
(-0.0421403 1.02177 0)
(-0.0504304 1.0273 0)
(-0.0607008 1.03482 0)
(-0.0735433 1.04518 0)
(-0.0896561 1.05954 0)
(-0.109679 1.07922 0)
(-0.133676 1.10493 0)
(-0.159887 1.13426 0)
(-0.182267 1.15585 0)
(-0.187665 1.13954 0)
(-0.158419 1.02944 0)
(-0.089858 0.759306 0)
(-0.0109356 0.30217 0)
(0.00607438 0.259073 0)
(0.0599899 0.681733 0)
(0.121873 0.968778 0)
(0.161243 1.11647 0)
(0.170458 1.16358 0)
(0.159211 1.1575 0)
(0.139113 1.13201 0)
(0.11761 1.10434 0)
(0.0981149 1.0808 0)
(0.081636 1.06253 0)
(0.0680913 1.04882 0)
(0.0570375 1.03863 0)
(0.0479859 1.03102 0)
(0.0405092 1.02528 0)
(0.0342628 1.02092 0)
(0.0289768 1.01757 0)
(0.0244416 1.01499 0)
(0.0204939 1.01299 0)
(0.0170056 1.01144 0)
(0.0138748 1.01025 0)
(0.0110197 1.00935 0)
(0.00837286 1.00868 0)
(0.00587811 1.0082 0)
(0.00348685 1.0079 0)
(0.0011557 1.00775 0)
(-0.0011557 1.00775 0)
(-0.00348685 1.0079 0)
(-0.00587811 1.0082 0)
(-0.00837286 1.00868 0)
(-0.0110197 1.00935 0)
(-0.0138748 1.01025 0)
(-0.0170056 1.01144 0)
(-0.0204939 1.01299 0)
(-0.0244416 1.01499 0)
(-0.0289768 1.01757 0)
(-0.0342628 1.02092 0)
(-0.0405092 1.02528 0)
(-0.0479859 1.03102 0)
(-0.0570375 1.03863 0)
(-0.0680913 1.04882 0)
(-0.081636 1.06253 0)
(-0.0981149 1.0808 0)
(-0.11761 1.10434 0)
(-0.139113 1.13201 0)
(-0.159211 1.1575 0)
(-0.170458 1.16358 0)
(-0.161243 1.11647 0)
(-0.121873 0.968778 0)
(-0.0599899 0.681733 0)
(-0.00607438 0.259073 0)
(0.00327144 0.23053 0)
(0.0401868 0.622154 0)
(0.0913573 0.911445 0)
(0.132638 1.08365 0)
(0.151408 1.15802 0)
(0.150248 1.17034 0)
(0.137327 1.15303 0)
(0.119872 1.12668 0)
(0.102249 1.10119 0)
(0.0864113 1.07994 0)
(0.0728999 1.06329 0)
(0.0616093 1.05056 0)
(0.0522143 1.04089 0)
(0.0443604 1.03352 0)
(0.0377328 1.02787 0)
(0.0320732 1.02352 0)
(0.0271755 1.02014 0)
(0.0228769 1.01753 0)
(0.0190483 1.01549 0)
(0.0155869 1.01393 0)
(0.0124093 1.01273 0)
(0.00944669 1.01185 0)
(0.00664141 1.01122 0)
(0.00394334 1.01082 0)
(0.00130762 1.01062 0)
(-0.00130762 1.01062 0)
(-0.00394334 1.01082 0)
(-0.00664141 1.01122 0)
(-0.00944669 1.01185 0)
(-0.0124093 1.01273 0)
(-0.0155869 1.01393 0)
(-0.0190483 1.01549 0)
(-0.0228769 1.01753 0)
(-0.0271755 1.02014 0)
(-0.0320732 1.02352 0)
(-0.0377328 1.02787 0)
(-0.0443604 1.03352 0)
(-0.0522143 1.04089 0)
(-0.0616093 1.05056 0)
(-0.0728999 1.06329 0)
(-0.0864113 1.07994 0)
(-0.102249 1.10119 0)
(-0.119872 1.12668 0)
(-0.137327 1.15303 0)
(-0.150248 1.17034 0)
(-0.151408 1.15802 0)
(-0.132638 1.08365 0)
(-0.0913573 0.911445 0)
(-0.0401868 0.622154 0)
(-0.00327144 0.23053 0)
(0.00115472 0.211672 0)
(0.0257528 0.577337 0)
(0.0662023 0.861404 0)
(0.105025 1.04748 0)
(0.128979 1.14323 0)
(0.13581 1.17372 0)
(0.129951 1.16715 0)
(0.117328 1.14494 0)
(0.102518 1.11952 0)
(0.0881311 1.09649 0)
(0.075284 1.07752 0)
(0.0642417 1.06256 0)
(0.0548822 1.05097 0)
(0.0469528 1.04203 0)
(0.0401878 1.03513 0)
(0.0343528 1.02978 0)
(0.0292544 1.02562 0)
(0.0247373 1.02239 0)
(0.0206777 1.01987 0)
(0.0169763 1.01793 0)
(0.0135524 1.01644 0)
(0.0103393 1.01534 0)
(0.00728068 1.01456 0)
(0.00432753 1.01406 0)
(0.00143578 1.01382 0)
(-0.00143578 1.01382 0)
(-0.00432753 1.01406 0)
(-0.00728068 1.01456 0)
(-0.0103393 1.01534 0)
(-0.0135524 1.01644 0)
(-0.0169763 1.01793 0)
(-0.0206777 1.01987 0)
(-0.0247373 1.02239 0)
(-0.0292544 1.02562 0)
(-0.0343528 1.02978 0)
(-0.0401878 1.03513 0)
(-0.0469528 1.04203 0)
(-0.0548822 1.05097 0)
(-0.0642417 1.06256 0)
(-0.075284 1.07752 0)
(-0.0881311 1.09649 0)
(-0.102518 1.11952 0)
(-0.117328 1.14494 0)
(-0.129951 1.16715 0)
(-0.13581 1.17372 0)
(-0.128979 1.14323 0)
(-0.105025 1.04748 0)
(-0.0662023 0.861404 0)
(-0.0257528 0.577337 0)
(-0.00115472 0.211672 0)
(-2.08513e-05 0.198038 0)
(0.0130583 0.541995 0)
(0.0438843 0.817002 0)
(0.078705 1.00966 0)
(0.105146 1.12146 0)
(0.118007 1.16877 0)
(0.118534 1.17435 0)
(0.110953 1.15854 0)
(0.099513 1.13514 0)
(0.0871666 1.11161 0)
(0.0754923 1.09106 0)
(0.0651109 1.07427 0)
(0.0561187 1.06096 0)
(0.0483824 1.05057 0)
(0.0416989 1.04248 0)
(0.0358678 1.03619 0)
(0.0307162 1.03129 0)
(0.0261025 1.02746 0)
(0.021913 1.02448 0)
(0.0180564 1.02217 0)
(0.0144582 1.02041 0)
(0.0110567 1.0191 0)
(0.00779966 1.01817 0)
(0.00464145 1.01758 0)
(0.00154084 1.01729 0)
(-0.00154084 1.01729 0)
(-0.00464145 1.01758 0)
(-0.00779966 1.01817 0)
(-0.0110567 1.0191 0)
(-0.0144582 1.02041 0)
(-0.0180564 1.02217 0)
(-0.021913 1.02448 0)
(-0.0261025 1.02746 0)
(-0.0307162 1.03129 0)
(-0.0358678 1.03619 0)
(-0.0416989 1.04248 0)
(-0.0483824 1.05057 0)
(-0.0561187 1.06096 0)
(-0.0651109 1.07427 0)
(-0.0754923 1.09106 0)
(-0.0871666 1.11161 0)
(-0.099513 1.13514 0)
(-0.110953 1.15854 0)
(-0.118534 1.17435 0)
(-0.118007 1.16877 0)
(-0.105146 1.12146 0)
(-0.078705 1.00966 0)
(-0.0438843 0.817002 0)
(-0.0130583 0.541995 0)
(2.08513e-05 0.198038 0)
(-0.00563371 0.210821 -9.19647e-20)
(-0.00155721 0.533413 2.10814e-19)
(0.0231714 0.789806 -2.08903e-19)
(0.0555462 0.978712 1.01603e-19)
(0.0833901 1.0984 0)
(0.100227 1.15807 5.87352e-20)
(0.105492 1.17481 -5.83027e-20)
(0.10211 1.16639 0)
(0.0938504 1.14658 -6.55001e-20)
(0.0837234 1.12393 1.33601e-19)
(0.0735523 1.10279 -6.81038e-20)
(0.0641885 1.0848 0)
(0.0558898 1.0702 -7.11134e-20)
(0.0486235 1.05862 -1.78483e-22)
(0.0422491 1.04954 7.20809e-20)
(0.0366068 1.04244 0)
(0.0315521 1.03688 -3.62539e-20)
(0.0269646 1.03254 3.63573e-20)
(0.0227469 1.02916 0)
(0.0188201 1.02654 0)
(0.0151202 1.02453 1.81455e-20)
(0.0115934 1.02304 -2.88254e-23)
(0.00819427 1.02198 -9.09562e-21)
(0.00488256 1.0213 -4.54584e-21)
(0.00162192 1.02097 -4.54405e-21)
(-0.00162192 1.02097 -4.54405e-21)
(-0.00488256 1.0213 -4.54584e-21)
(-0.00819427 1.02198 -9.09562e-21)
(-0.0115934 1.02304 -2.88254e-23)
(-0.0151202 1.02453 1.81455e-20)
(-0.0188201 1.02654 0)
(-0.0227469 1.02916 0)
(-0.0269646 1.03254 3.63573e-20)
(-0.0315521 1.03688 -3.62539e-20)
(-0.0366068 1.04244 0)
(-0.0422491 1.04954 7.20809e-20)
(-0.0486235 1.05862 -1.78483e-22)
(-0.0558898 1.0702 -7.11134e-20)
(-0.0641885 1.0848 0)
(-0.0735523 1.10279 -6.81038e-20)
(-0.0837234 1.12393 1.33601e-19)
(-0.0938504 1.14658 -6.55001e-20)
(-0.10211 1.16639 0)
(-0.105492 1.17481 -5.83027e-20)
(-0.100227 1.15807 5.87352e-20)
(-0.0833901 1.0984 0)
(-0.0555462 0.978712 1.01603e-19)
(-0.0231714 0.789806 -2.08903e-19)
(0.00155721 0.533413 2.10814e-19)
(0.00563371 0.210821 -9.19647e-20)
(-0.0412865 0.221546 0)
(-0.0404591 0.529913 -7.18861e-19)
(-0.0132199 0.772421 6.41851e-19)
(0.0244576 0.957496 -7.88964e-19)
(0.058122 1.08236 7.47249e-19)
(0.081179 1.15116 -8.20391e-19)
(0.0922783 1.17633 -3.3114e-20)
(0.0934845 1.17346 8.48538e-19)
(0.0883669 1.15628 0)
(0.080261 1.13423 0)
(0.0714128 1.11261 0)
(0.0629696 1.09373 1.00263e-18)
(0.0553418 1.07818 -1.01487e-18)
(0.0485663 1.06573 0)
(0.0425385 1.05591 0)
(0.0371248 1.04821 0)
(0.0322034 1.04216 0)
(0.027674 1.03743 0)
(0.0234556 1.03373 0)
(0.0194831 1.03086 0)
(0.0157031 1.02866 0)
(0.0120707 1.02702 0)
(0.00854744 1.02585 0)
(0.00509925 1.0251 0)
(0.00169492 1.02474 0)
(-0.00169492 1.02474 0)
(-0.00509925 1.0251 0)
(-0.00854744 1.02585 0)
(-0.0120707 1.02702 0)
(-0.0157031 1.02866 0)
(-0.0194831 1.03086 0)
(-0.0234556 1.03373 0)
(-0.027674 1.03743 0)
(-0.0322034 1.04216 0)
(-0.0371248 1.04821 0)
(-0.0425385 1.05591 0)
(-0.0485663 1.06573 0)
(-0.0553418 1.07818 -1.01487e-18)
(-0.0629696 1.09373 1.00263e-18)
(-0.0714128 1.11261 0)
(-0.080261 1.13423 0)
(-0.0883669 1.15628 0)
(-0.0934845 1.17346 8.48538e-19)
(-0.0922783 1.17633 -3.3114e-20)
(-0.081179 1.15116 -8.20391e-19)
(-0.058122 1.08236 7.47249e-19)
(-0.0244576 0.957496 -7.88964e-19)
(0.0132199 0.772421 6.41851e-19)
(0.0404591 0.529913 -7.18861e-19)
(0.0412865 0.221546 0)
(-0.0437577 0.082502 0)
(-0.0679379 0.340352 0)
(-0.0590799 0.599025 0)
(-0.0274866 0.820925 -7.70183e-19)
(0.010341 0.988166 1.68367e-18)
(0.043311 1.09715 1.83845e-19)
(0.0661816 1.15454 -2.35633e-18)
(0.0780202 1.17313 1.26419e-18)
(0.080746 1.16731 1.47546e-18)
(0.0774968 1.14938 -3.08489e-18)
(0.0712156 1.12778 3.26542e-18)
(0.0639404 1.10716 2.27923e-20)
(0.0567637 1.08947 -1.77148e-18)
(0.0501179 1.07509 0)
(0.0440852 1.0637 9.46695e-19)
(0.0386068 1.05477 -1.93892e-18)
(0.0335884 1.04781 1.98258e-18)
(0.0289394 1.04237 -2.02305e-18)
(0.024584 1.03815 1.03114e-18)
(0.0204603 1.03488 0)
(0.0165174 1.03238 5.32485e-19)
(0.0127131 1.03052 -5.4139e-19)
(0.0090111 1.02921 -2.74402e-19)
(0.00537931 1.02836 1.39299e-19)
(0.00178857 1.02795 1.41057e-19)
(-0.00178857 1.02795 1.41057e-19)
(-0.00537931 1.02836 1.39299e-19)
(-0.0090111 1.02921 -2.74402e-19)
(-0.0127131 1.03052 -5.4139e-19)
(-0.0165174 1.03238 5.32485e-19)
(-0.0204603 1.03488 0)
(-0.024584 1.03815 1.03114e-18)
(-0.0289394 1.04237 -2.02305e-18)
(-0.0335884 1.04781 1.98258e-18)
(-0.0386068 1.05477 -1.93892e-18)
(-0.0440852 1.0637 9.46695e-19)
(-0.0501179 1.07509 0)
(-0.0567637 1.08947 -1.77148e-18)
(-0.0639404 1.10716 2.27923e-20)
(-0.0712156 1.12778 3.26542e-18)
(-0.0774968 1.14938 -3.08489e-18)
(-0.080746 1.16731 1.47546e-18)
(-0.0780202 1.17313 1.26419e-18)
(-0.0661816 1.15454 -2.35633e-18)
(-0.043311 1.09715 1.83845e-19)
(-0.010341 0.988166 1.68367e-18)
(0.0274866 0.820925 -7.70183e-19)
(0.0590799 0.599025 0)
(0.0679379 0.340352 0)
(0.0437577 0.082502 0)
(-0.0181245 -0.00432842 0)
(-0.0556107 0.14873 0)
(-0.0732337 0.380046 0)
(-0.0613507 0.624473 7.41721e-19)
(-0.0305173 0.837867 -6.9066e-19)
(0.00541016 0.998317 -9.72304e-19)
(0.0365933 1.10126 9.51623e-19)
(0.0581921 1.15379 0)
(0.0694818 1.16915 1.29207e-18)
(0.0723834 1.16169 -1.32255e-18)
(0.0698209 1.14335 0)
(0.0644526 1.12212 0)
(0.0580929 1.1023 0)
(0.0517125 1.08555 0)
(0.0457025 1.07211 0)
(0.0401489 1.06157 8.92767e-19)
(0.0350147 1.05339 1.05926e-21)
(0.0302296 1.04706 1.05191e-22)
(0.0257247 1.04217 -9.53939e-19)
(0.0214414 1.03842 0)
(0.0173307 1.03557 -4.93952e-19)
(0.0133522 1.03346 5.02438e-19)
(0.00947098 1.03197 2.54846e-19)
(0.0056566 1.03102 -2.58673e-19)
(0.00188121 1.03056 0)
(-0.00188121 1.03056 0)
(-0.0056566 1.03102 -2.58673e-19)
(-0.00947098 1.03197 2.54846e-19)
(-0.0133522 1.03346 5.02438e-19)
(-0.0173307 1.03557 -4.93952e-19)
(-0.0214414 1.03842 0)
(-0.0257247 1.04217 -9.53939e-19)
(-0.0302296 1.04706 1.05191e-22)
(-0.0350147 1.05339 1.05926e-21)
(-0.0401489 1.06157 8.92767e-19)
(-0.0457025 1.07211 0)
(-0.0517125 1.08555 0)
(-0.0580929 1.1023 0)
(-0.0644526 1.12212 0)
(-0.0698209 1.14335 0)
(-0.0723834 1.16169 -1.32255e-18)
(-0.0694818 1.16915 1.29207e-18)
(-0.0581921 1.15379 0)
(-0.0365933 1.10126 9.51623e-19)
(-0.00541016 0.998317 -9.72304e-19)
(0.0305173 0.837867 -6.9066e-19)
(0.0613507 0.624473 7.41721e-19)
(0.0732337 0.380046 0)
(0.0556107 0.14873 0)
(0.0181245 -0.00432842 0)
(-0.00214811 -0.0157537 0)
(-0.0329239 0.0520583 0)
(-0.0646879 0.216865 0)
(-0.0740283 0.440083 0)
(-0.0583361 0.671095 -9.82999e-19)
(-0.0276144 0.870676 9.18236e-19)
(0.00629172 1.01826 0)
(0.0348589 1.11015 0)
(0.0540732 1.15428 -1.24519e-18)
(0.0637304 1.16428 1.26272e-18)
(0.0659079 1.15422 0)
(0.0633678 1.13532 -1.49793e-18)
(0.0584647 1.11475 3.10924e-18)
(0.0527327 1.09615 -1.61208e-18)
(0.046961 1.08075 0)
(0.0414561 1.06856 0)
(0.0362829 1.0591 0)
(0.0314129 1.05182 0)
(0.0267942 1.04624 9.27286e-19)
(0.022376 1.04199 -1.41607e-18)
(0.0181147 1.03878 4.79985e-19)
(0.0139735 1.03641 4.87065e-19)
(0.00992073 1.03475 -4.94409e-19)
(0.00592879 1.03369 -1.25222e-19)
(0.00197232 1.03317 1.26864e-19)
(-0.00197232 1.03317 1.26864e-19)
(-0.00592879 1.03369 -1.25222e-19)
(-0.00992073 1.03475 -4.94409e-19)
(-0.0139735 1.03641 4.87065e-19)
(-0.0181147 1.03878 4.79985e-19)
(-0.022376 1.04199 -1.41607e-18)
(-0.0267942 1.04624 9.27286e-19)
(-0.0314129 1.05182 0)
(-0.0362829 1.0591 0)
(-0.0414561 1.06856 0)
(-0.046961 1.08075 0)
(-0.0527327 1.09615 -1.61208e-18)
(-0.0584647 1.11475 3.10924e-18)
(-0.0633678 1.13532 -1.49793e-18)
(-0.0659079 1.15422 0)
(-0.0637304 1.16428 1.26272e-18)
(-0.0540732 1.15428 -1.24519e-18)
(-0.0348589 1.11015 0)
(-0.00629172 1.01826 0)
(0.0276144 0.870676 9.18236e-19)
(0.0583361 0.671095 -9.82999e-19)
(0.0740283 0.440083 0)
(0.0646879 0.216865 0)
(0.0329239 0.0520583 0)
(0.00214811 -0.0157537 0)
(0.00480855 -0.0142373 -1.93634e-18)
(-0.0121131 0.0138952 -1.0585e-18)
(-0.0451301 0.118693 2.07194e-18)
(-0.0692657 0.297095 9.8919e-20)
(-0.0710173 0.515599 1.07338e-19)
(-0.051896 0.732122 -2.10521e-18)
(-0.0214304 0.9137 -9.12953e-20)
(0.0100737 1.04362 1.08565e-18)
(0.0354677 1.12062 1.23068e-18)
(0.0517744 1.15401 6.76208e-20)
(0.0593944 1.15762 -2.70126e-18)
(0.0605441 1.14484 1.41009e-18)
(0.0577844 1.1257 0)
(0.0531401 1.10627 0)
(0.0478545 1.08931 -8.21859e-19)
(0.0425331 1.07557 8.41126e-19)
(0.0373981 1.06486 0)
(0.0324922 1.05663 0)
(0.0277931 1.05036 9.04143e-19)
(0.0232637 1.0456 -9.20202e-19)
(0.0188684 1.04203 4.67508e-19)
(0.0145759 1.03942 -2.77821e-22)
(0.0103595 1.03758 -7.22164e-19)
(0.00619531 1.03642 1.22018e-19)
(0.0020617 1.03586 1.23492e-19)
(-0.0020617 1.03586 1.23492e-19)
(-0.00619531 1.03642 1.22018e-19)
(-0.0103595 1.03758 -7.22164e-19)
(-0.0145759 1.03942 -2.77821e-22)
(-0.0188684 1.04203 4.67508e-19)
(-0.0232637 1.0456 -9.20202e-19)
(-0.0277931 1.05036 9.04143e-19)
(-0.0324922 1.05663 0)
(-0.0373981 1.06486 0)
(-0.0425331 1.07557 8.41126e-19)
(-0.0478545 1.08931 -8.21859e-19)
(-0.0531401 1.10627 0)
(-0.0577844 1.1257 0)
(-0.0605441 1.14484 1.41009e-18)
(-0.0593944 1.15762 -2.70126e-18)
(-0.0517744 1.15401 6.76208e-20)
(-0.0354677 1.12062 1.23068e-18)
(-0.0100737 1.04362 1.08565e-18)
(0.0214304 0.9137 -9.12953e-20)
(0.051896 0.732122 -2.10521e-18)
(0.0710173 0.515599 1.07338e-19)
(0.0692657 0.297095 9.8919e-20)
(0.0451301 0.118693 2.07194e-18)
(0.0121131 0.0138952 -1.0585e-18)
(-0.00480855 -0.0142373 1.93634e-18)
(0.0075385 -0.0129882 -2.4278e-18)
(0.00248947 -0.00401479 2.66412e-18)
(-0.0241695 0.0599651 -1.34627e-18)
(-0.0541777 0.192986 -2.47039e-18)
(-0.0700667 0.382462 2.39307e-18)
(-0.0650482 0.595994 -1.1299e-18)
(-0.043049 0.797153 0)
(-0.0132338 0.958857 -1.21061e-18)
(0.0154487 1.06913 2.41727e-18)
(0.0373014 1.12993 -1.23155e-18)
(0.0504661 1.15213 0)
(0.0559274 1.14955 0)
(0.0559688 1.13454 0)
(0.0528952 1.1157 7.74833e-19)
(0.0483852 1.09778 8.36651e-21)
(0.0434023 1.08269 -8.20649e-19)
(0.0383872 1.07075 8.47154e-19)
(0.0334914 1.06155 -8.64061e-19)
(0.0287409 1.05457 0)
(0.0241198 1.04931 -4.48943e-19)
(0.0196035 1.04538 4.5625e-19)
(0.0151683 1.04251 -4.62776e-19)
(0.0107932 1.04051 4.69415e-19)
(0.00645973 1.03924 0)
(0.00215053 1.03863 0)
(-0.00215053 1.03863 0)
(-0.00645973 1.03924 0)
(-0.0107932 1.04051 4.69415e-19)
(-0.0151683 1.04251 -4.62776e-19)
(-0.0196035 1.04538 4.5625e-19)
(-0.0241198 1.04931 -4.48943e-19)
(-0.0287409 1.05457 0)
(-0.0334914 1.06155 -8.64061e-19)
(-0.0383872 1.07075 8.47154e-19)
(-0.0434023 1.08269 -8.20649e-19)
(-0.0483852 1.09778 8.36651e-21)
(-0.0528952 1.1157 7.74833e-19)
(-0.0559688 1.13454 0)
(-0.0559274 1.14955 0)
(-0.0504661 1.15213 0)
(-0.0373014 1.12993 -1.23155e-18)
(-0.0154487 1.06913 2.41727e-18)
(0.0132338 0.958857 -1.21061e-18)
(0.043049 0.797153 0)
(0.0650482 0.595994 -1.1299e-18)
(0.0700667 0.382462 2.39307e-18)
(0.0541777 0.192986 -2.47039e-18)
(0.0241695 0.0599651 -1.34627e-18)
(-0.00248947 -0.00401479 2.66412e-18)
(-0.0075385 -0.0129882 2.4278e-18)
(0.00833009 -0.0118549 0)
(0.0110331 -0.0123515 0)
(-0.00723656 0.0259763 -1.5358e-18)
(-0.0360984 0.121933 -5.37298e-21)
(-0.0600179 0.277395 1.37971e-18)
(-0.0675472 0.473811 1.36641e-18)
(-0.0564269 0.679561 6.21269e-20)
(-0.0322455 0.862932 -1.22694e-18)
(-0.00371088 1.00271 0)
(0.0216577 1.09209 1.31144e-18)
(0.0396942 1.13646 4.83704e-20)
(0.0496454 1.14801 -2.77546e-18)
(0.0529816 1.14016 1.43369e-18)
(0.0519471 1.12379 -7.60884e-19)
(0.0485333 1.10585 7.78535e-19)
(0.0440702 1.08979 8.09872e-19)
(0.0392674 1.07673 -8.26887e-19)
(0.0344289 1.06658 0)
(0.0296532 1.05889 0)
(0.0249564 1.05311 0)
(0.0203291 1.04882 0)
(0.015757 1.04571 0)
(0.0112264 1.04354 0)
(0.00672458 1.04218 -1.1604e-19)
(0.00223963 1.04151 1.17456e-19)
(-0.00223963 1.04151 1.17456e-19)
(-0.00672458 1.04218 -1.1604e-19)
(-0.0112264 1.04354 0)
(-0.015757 1.04571 0)
(-0.0203291 1.04882 0)
(-0.0249564 1.05311 0)
(-0.0296532 1.05889 0)
(-0.0344289 1.06658 0)
(-0.0392674 1.07673 -8.26887e-19)
(-0.0440702 1.08979 8.09872e-19)
(-0.0485333 1.10585 7.78535e-19)
(-0.0519471 1.12379 -7.60884e-19)
(-0.0529816 1.14016 1.43369e-18)
(-0.0496454 1.14801 -2.77546e-18)
(-0.0396942 1.13646 4.83704e-20)
(-0.0216577 1.09209 1.31144e-18)
(0.00371088 1.00271 0)
(0.0322455 0.862932 -1.22694e-18)
(0.0564269 0.679561 6.21269e-20)
(0.0675472 0.473811 1.36641e-18)
(0.0600179 0.277395 1.37971e-18)
(0.0360984 0.121933 -5.37298e-21)
(0.00723656 0.0259763 -1.5358e-18)
(-0.0110331 -0.0123515 0)
(-0.00833009 -0.0118549 0)
(0.00826347 -0.0112567 0)
(0.0153712 -0.016424 0)
(0.00439544 0.00663407 0)
(-0.0198767 0.0756719 0)
(-0.0461709 0.199776 0)
(-0.0623421 0.372244 0)
(-0.0616892 0.57049 -1.46545e-18)
(-0.0453537 0.764122 2.74995e-18)
(-0.019991 0.926402 -1.31553e-18)
(0.00644821 1.04234 -1.35457e-18)
(0.0280263 1.11042 1.33295e-18)
(0.042115 1.13914 0)
(0.0489472 1.14145 0)
(0.0503157 1.12972 0)
(0.0483062 1.11304 0)
(0.0445561 1.09662 -7.96644e-19)
(0.0400659 1.08268 8.12834e-19)
(0.0353312 1.07167 0)
(0.0305515 1.06328 0)
(0.0257893 1.057 0)
(0.0210564 1.05236 -4.36782e-19)
(0.0163499 1.04901 4.42992e-19)
(0.011664 1.04669 0)
(0.00699261 1.04523 0)
(0.00232988 1.04452 0)
(-0.00232988 1.04452 0)
(-0.00699261 1.04523 0)
(-0.011664 1.04669 0)
(-0.0163499 1.04901 4.42992e-19)
(-0.0210564 1.05236 -4.36782e-19)
(-0.0257893 1.057 0)
(-0.0305515 1.06328 0)
(-0.0353312 1.07167 0)
(-0.0400659 1.08268 8.12834e-19)
(-0.0445561 1.09662 -7.96644e-19)
(-0.0483062 1.11304 0)
(-0.0503157 1.12972 0)
(-0.0489472 1.14145 0)
(-0.042115 1.13914 0)
(-0.0280263 1.11042 1.33295e-18)
(-0.00644821 1.04234 -1.35457e-18)
(0.019991 0.926402 -1.31553e-18)
(0.0453537 0.764122 2.74995e-18)
(0.0616892 0.57049 -1.46545e-18)
(0.0623421 0.372244 0)
(0.0461709 0.199776 0)
(0.0198767 0.0756719 0)
(-0.00439544 0.00663407 0)
(-0.0153712 -0.016424 0)
(-0.00826347 -0.0112567 0)
(0.00780665 -0.0110719 0)
(0.0170626 -0.018932 0)
(0.0114277 -0.00487429 0)
(-0.0074808 0.0458657 -1.95281e-18)
(-0.0324602 0.14461 1.86124e-18)
(-0.0530557 0.292356 0)
(-0.0606009 0.475748 1.64321e-18)
(-0.0524235 0.66964 3.55119e-20)
(-0.0321853 0.846046 -1.43174e-18)
(-0.00693359 0.984029 -1.42481e-18)
(0.0165254 1.0751 1.38493e-18)
(0.0339496 1.12269 0)
(0.0441424 1.13766 0)
(0.0481051 1.1328 0)
(0.0477507 1.11888 0)
(0.044899 1.10292 0)
(0.0408236 1.08848 0)
(0.036237 1.07676 0)
(0.0314682 1.06774 0)
(0.0266434 1.06099 4.22893e-19)
(0.0218034 1.05602 -4.29026e-19)
(0.0169592 1.05244 0)
(0.0121139 1.04997 -2.19591e-19)
(0.00726833 1.04843 1.11176e-19)
(0.00242274 1.04768 1.12312e-19)
(-0.00242274 1.04768 1.12312e-19)
(-0.00726833 1.04843 1.11176e-19)
(-0.0121139 1.04997 -2.19591e-19)
(-0.0169592 1.05244 0)
(-0.0218034 1.05602 -4.29026e-19)
(-0.0266434 1.06099 4.22893e-19)
(-0.0314682 1.06774 0)
(-0.036237 1.07676 0)
(-0.0408236 1.08848 0)
(-0.044899 1.10292 0)
(-0.0477507 1.11888 0)
(-0.0481051 1.1328 0)
(-0.0441424 1.13766 0)
(-0.0339496 1.12269 0)
(-0.0165254 1.0751 1.38493e-18)
(0.00693359 0.984029 -1.42481e-18)
(0.0321853 0.846046 -1.43174e-18)
(0.0524235 0.66964 3.55119e-20)
(0.0606009 0.475748 1.64321e-18)
(0.0530557 0.292356 0)
(0.0324602 0.14461 1.86124e-18)
(0.0074808 0.0458657 -1.95281e-18)
(-0.0114277 -0.00487429 0)
(-0.0170626 -0.018932 0)
(-0.00780665 -0.0110719 0)
(0.00709922 -0.0110445 3.9048e-18)
(0.0170192 -0.0208184 0)
(0.0148924 -0.0122604 2.23697e-18)
(0.000785366 0.0264199 -4.04091e-20)
(-0.021087 0.106196 -2.10771e-18)
(-0.042739 0.232008 1.98076e-18)
(-0.0555215 0.397703 -1.81587e-18)
(-0.0543561 0.584733 0)
(-0.0399273 0.767262 -1.59761e-18)
(-0.0175004 0.921359 -2.12433e-20)
(0.00620557 1.03274 1.46106e-18)
(0.0258824 1.0993 0)
(0.038983 1.12854 0)
(0.045514 1.13249 7.517e-19)
(0.0469615 1.1229 -7.63184e-19)
(0.0451596 1.10841 7.819e-19)
(0.0415925 1.09401 -1.59253e-18)
(0.0371932 1.08181 8.1019e-19)
(0.0324425 1.07226 0)
(0.027549 1.06508 0)
(0.022592 1.05981 0)
(0.0176002 1.05603 0)
(0.012586 1.05343 -2.15454e-19)
(0.00755718 1.05181 2.17909e-19)
(0.00251996 1.05103 0)
(-0.00251996 1.05103 0)
(-0.00755718 1.05181 2.17909e-19)
(-0.012586 1.05343 -2.15454e-19)
(-0.0176002 1.05603 0)
(-0.022592 1.05981 0)
(-0.027549 1.06508 0)
(-0.0324425 1.07226 0)
(-0.0371932 1.08181 8.1019e-19)
(-0.0415925 1.09401 -1.59253e-18)
(-0.0451596 1.10841 7.819e-19)
(-0.0469615 1.1229 -7.63184e-19)
(-0.045514 1.13249 7.517e-19)
(-0.038983 1.12854 0)
(-0.0258824 1.0993 0)
(-0.00620557 1.03274 1.46106e-18)
(0.0175004 0.921359 -2.12433e-20)
(0.0399273 0.767262 -1.59761e-18)
(0.0543561 0.584733 0)
(0.0555215 0.397703 -1.81587e-18)
(0.042739 0.232008 1.98076e-18)
(0.021087 0.106196 -2.10771e-18)
(-0.000785365 0.0264199 -4.04091e-20)
(-0.0148924 -0.0122604 2.23697e-18)
(-0.0170192 -0.0208184 0)
(-0.00709922 -0.0110445 -3.9048e-18)
(0.00617144 -0.0110281 -6.38715e-18)
(0.0157055 -0.0223259 5.07232e-18)
(0.0156079 -0.0172989 -2.52893e-18)
(0.00528112 0.0135313 0)
(-0.0129725 0.0798274 2.34585e-18)
(-0.0334754 0.18794 -2.20635e-18)
(-0.0486934 0.336355 0)
(-0.0525853 0.512569 -1.89981e-18)
(-0.0435356 0.694758 3.49413e-18)
(-0.0247424 0.858747 1.10812e-20)
(-0.00209556 0.986369 -1.5604e-18)
(0.0186847 1.07042 0)
(0.0340029 1.11443 -7.58457e-19)
(0.0428481 1.12858 7.60433e-19)
(0.0460997 1.12476 -7.69967e-19)
(0.0454308 1.11281 7.81593e-19)
(0.0424398 1.09909 7.91883e-19)
(0.0382552 1.08676 -8.04455e-19)
(0.0335199 1.07684 4.06167e-19)
(0.0285413 1.06932 -8.22466e-19)
(0.0234479 1.06378 8.30942e-19)
(0.0182903 1.05982 -4.19941e-19)
(0.0130914 1.05711 2.11597e-19)
(0.00786532 1.05542 -2.13839e-19)
(0.00262348 1.05461 0)
(-0.00262348 1.05461 0)
(-0.00786532 1.05542 -2.13839e-19)
(-0.0130914 1.05711 2.11597e-19)
(-0.0182903 1.05982 -4.19941e-19)
(-0.0234479 1.06378 8.30942e-19)
(-0.0285413 1.06932 -8.22466e-19)
(-0.0335199 1.07684 4.06167e-19)
(-0.0382552 1.08676 -8.04455e-19)
(-0.0424398 1.09909 7.91883e-19)
(-0.0454308 1.11281 7.81593e-19)
(-0.0460997 1.12476 -7.69967e-19)
(-0.0428481 1.12858 7.60433e-19)
(-0.0340029 1.11443 -7.58457e-19)
(-0.0186847 1.07042 0)
(0.00209556 0.986369 -1.5604e-18)
(0.0247424 0.858747 1.10812e-20)
(0.0435356 0.694758 3.49413e-18)
(0.0525853 0.512569 -1.89981e-18)
(0.0486934 0.336355 0)
(0.0334754 0.18794 -2.20635e-18)
(0.0129725 0.0798274 2.34585e-18)
(-0.00528112 0.0135313 0)
(-0.0156079 -0.0172989 -2.52893e-18)
(-0.0157055 -0.0223259 5.07232e-18)
(-0.00617144 -0.0110281 2.17134e-18)
(0.00503894 -0.0109698 0)
(0.0133557 -0.023491 0)
(0.0141297 -0.0207826 0)
(0.00652717 0.00503947 0)
(-0.00828296 0.0622004 -2.6002e-18)
(-0.026427 0.157053 2.4567e-18)
(-0.0418541 0.290542 0)
(-0.0486244 0.454721 0)
(-0.0437489 0.632186 0)
(-0.0285771 0.800457 0)
(-0.00777923 0.939559 0)
(0.0130925 1.03835 0)
(0.02982 1.09635 0)
(0.0405224 1.12127 0)
(0.0454087 1.12429 0)
(0.045852 1.11589 0)
(0.0434537 1.10357 0)
(0.039487 1.09153 0)
(0.0347498 1.08147 0)
(0.0296577 1.0737 0)
(0.0243978 1.06797 0)
(0.0190477 1.06387 2.06134e-19)
(0.0136415 1.06107 -2.08218e-19)
(0.00819885 1.05932 0)
(0.00273524 1.05849 0)
(-0.00273524 1.05849 0)
(-0.00819885 1.05932 0)
(-0.0136415 1.06107 -2.08218e-19)
(-0.0190477 1.06387 2.06134e-19)
(-0.0243978 1.06797 0)
(-0.0296577 1.0737 0)
(-0.0347498 1.08147 0)
(-0.039487 1.09153 0)
(-0.0434537 1.10357 0)
(-0.045852 1.11589 0)
(-0.0454087 1.12429 0)
(-0.0405224 1.12127 0)
(-0.02982 1.09635 0)
(-0.0130925 1.03835 0)
(0.00777923 0.939559 0)
(0.0285771 0.800457 0)
(0.0437489 0.632186 0)
(0.0486244 0.454721 0)
(0.0418541 0.290542 0)
(0.026427 0.157053 2.4567e-18)
(0.00828296 0.0622004 -2.6002e-18)
(-0.00652717 0.00503947 0)
(-0.0141297 -0.0207826 0)
(-0.0133557 -0.023491 0)
(-0.00503894 -0.0109698 0)
(0.00373235 -0.0108647 0)
(0.0101269 -0.0242802 0)
(0.0108605 -0.022993 0)
(0.00505959 -0.000135564 0)
(-0.0067565 0.0512867 0)
(-0.0220071 0.136991 0)
(-0.0360723 0.258846 2.53119e-18)
(-0.0437145 0.411796 -2.31559e-18)