/*--------------------------------*- C++ -*----------------------------------*\
  =========                 |
  \\      /  F ield         | OpenFOAM: The Open Source CFD Toolbox
   \\    /   O peration     | Website:  https://openfoam.org
    \\  /    A nd           | Version:  6
     \\/     M anipulation  |
\*---------------------------------------------------------------------------*/
FoamFile
{
    version     2.0;
    format      ascii;
    class       volScalarField;
    location    "3200";
    object      p;
}
// * * * * * * * * * * * * * * * * * * * * * * * * * * * * * * * * * * * * * //

dimensions      [0 2 -2 0 0 0 0];

internalField   nonuniform List<scalar> 
2500
(
1.30514
0.600508
0.377646
0.277032
0.214301
0.174025
0.146323
0.126188
0.110982
0.0991589
0.0897586
0.082156
0.0759273
0.0707756
0.0664868
0.0629035
0.0599076
0.0574094
0.0553403
0.0536474
0.05229
0.0512373
0.0504664
0.0499611
0.0497109
0.0497109
0.0499611
0.0504664
0.0512373
0.05229
0.0536474
0.0553403
0.0574094
0.0599076
0.0629035
0.0664868
0.0707756
0.0759273
0.082156
0.0897586
0.0991589
0.110982
0.126188
0.146323
0.174025
0.214301
0.277032
0.377646
0.600508
1.30514
0.938347
0.495418
0.352271
0.267495
0.210298
0.172302
0.145485
0.125731
0.110709
0.0989845
0.0896443
0.0820834
0.0758864
0.0707602
0.0664928
0.0629277
0.0599472
0.0574621
0.0554039
0.05372
0.0523699
0.0513229
0.0505561
0.0500535
0.0498047
0.0498047
0.0500535
0.0505561
0.0513229
0.0523699
0.05372
0.0554039
0.0574621
0.0599472
0.0629277
0.0664928
0.0707602
0.0758864
0.0820834
0.0896443
0.0989845
0.110709
0.125731
0.145485
0.172302
0.210298
0.267495
0.352271
0.495418
0.938347
0.685282
0.411693
0.325
0.254136
0.203641
0.168842
0.143493
0.124496
0.109894
0.0984205
0.0892415
0.0817908
0.0756734
0.0706071
0.0663862
0.0628578
0.0599068
0.0574454
0.0554064
0.0537377
0.0523997
0.0513618
0.0506018
0.0501035
0.0498568
0.0498568
0.0501035
0.0506018
0.0513618
0.0523997
0.0537377
0.0554064
0.0574454
0.0599068
0.0628578
0.0663862
0.0706071
0.0756734
0.0817908
0.0892415
0.0984205
0.109894
0.124496
0.143493
0.168842
0.203641
0.254136
0.325
0.411693
0.685282
0.533047
0.352649
0.295524
0.236904
0.194042
0.163198
0.139947
0.122156
0.108281
0.0972667
0.0883928
0.0811534
0.0751876
0.0702335
0.0660975
0.0626345
0.0597347
0.0573135
0.0553062
0.0536625
0.0523437
0.0513204
0.0505707
0.0500792
0.0498358
0.0498358
0.0500792
0.0505707
0.0513204
0.0523437
0.0536625
0.0553062
0.0573135
0.0597347
0.0626345
0.0660975
0.0702335
0.0751876
0.0811534
0.0883928
0.0972667
0.108281
0.122156
0.139947
0.163198
0.194042
0.236904
0.295524
0.352649
0.533047
0.423801
0.303223
0.264648
0.217681
0.182521
0.155925
0.135154
0.118883
0.105966
0.0955799
0.0871328
0.080193
0.0744437
0.06965
0.0656352
0.0622653
0.0594377
0.0570731
0.0551101
0.0535009
0.0522088
0.0512055
0.0504702
0.0499879
0.049749
0.049749
0.0499879
0.0504702
0.0512055
0.0522088
0.0535009
0.0551101
0.0570731
0.0594377
0.0622653
0.0656352
0.06965
0.0744437
0.080193
0.0871328
0.0955799
0.105966
0.118883
0.135154
0.155925
0.182521
0.217681
0.264648
0.303223
0.423801
0.339138
0.259871
0.234639
0.198195
0.170067
0.147633
0.129487
0.114903
0.103091
0.0934514
0.0855221
0.0789513
0.0734714
0.0688783
0.0650156
0.0617627
0.059026
0.0567324
0.054825
0.0532592
0.0520004
0.0510222
0.0503047
0.0498339
0.0496007
0.0496007
0.0498339
0.0503047
0.0510222
0.0520004
0.0532592
0.054825
0.0567324
0.059026
0.0617627
0.0650156
0.0688783
0.0734714
0.0789513
0.0855221
0.0934514
0.103091
0.114903
0.129487
0.147633
0.170067
0.198195
0.234639
0.259871
0.339138
0.27411
0.222842
0.206919
0.179324
0.15728
0.13874
0.12321
0.110381
0.0997615
0.0909489
0.0836054
0.0774583
0.0722908
0.0679323
0.0642484
0.0611335
0.058504
0.0562945
0.0544529
0.0529384
0.0517192
0.0507706
0.0500743
0.0496171
0.0493906
0.0493906
0.0496171
0.0500743
0.0507706
0.0517192
0.0529384
0.0544529
0.0562945
0.058504
0.0611335
0.0642484
0.0679323
0.0722908
0.0774583
0.0836054
0.0909489
0.0997615
0.110381
0.12321
0.13874
0.15728
0.179324
0.206919
0.222842
0.27411
0.224192
0.191524
0.181879
0.161451
0.14454
0.129543
0.116526
0.105452
0.0960658
0.0881312
0.0814219
0.0757403
0.0709201
0.0668244
0.0633421
0.0603832
0.0578758
0.0557618
0.0539953
0.0525395
0.0513654
0.0504507
0.0497786
0.049337
0.0491181
0.0491181
0.049337
0.0497786
0.0504507
0.0513654
0.0525395
0.0539953
0.0557618
0.0578758
0.0603832
0.0633421
0.0668244
0.0709201
0.0757403
0.0814219
0.0881312
0.0960658
0.105452
0.116526
0.129543
0.14454
0.161451
0.181879
0.191524
0.224192
0.185222
0.164873
0.159476
0.144761
0.132115
0.120274
0.109606
0.100236
0.0920871
0.0850551
0.0790107
0.0738246
0.0693782
0.065568
0.062306
0.0595188
0.0571459
0.0551378
0.0534546
0.0520638
0.0509401
0.0500632
0.0494181
0.0489938
0.0487834
0.0487834
0.0489938
0.0494181
0.0500632
0.0509401
0.0520638
0.0534546
0.0551378
0.0571459
0.0595188
0.062306
0.065568
0.0693782
0.0738246
0.0790107
0.0850551
0.0920871
0.100236
0.109606
0.120274
0.132115
0.144761
0.159476
0.164873
0.185222
0.154181
0.142016
0.139541
0.129328
0.120183
0.111107
0.102589
0.0948378
0.0879005
0.0817743
0.0764099
0.0717382
0.0676846
0.0641771
0.0611503
0.0585474
0.0563196
0.0544262
0.0528334
0.0515135
0.0504445
0.0496089
0.0489933
0.048588
0.048387
0.048387
0.048588
0.0489933
0.0496089
0.0504445
0.0515135
0.0528334
0.0544262
0.0563196
0.0585474
0.0611503
0.0641771
0.0676846
0.0717382
0.0764099
0.0817743
0.0879005
0.0948378
0.102589
0.111107
0.120183
0.129328
0.139541
0.142016
0.154181
0.128993
0.122283
0.121847
0.115145
0.108852
0.102166
0.0955836
0.0893442
0.0835719
0.0783373
0.073655
0.069507
0.065858
0.0626653
0.0598852
0.0574766
0.0554026
0.0536311
0.0521347
0.0508906
0.0498803
0.0490889
0.048505
0.0481202
0.0479292
0.0479292
0.0481202
0.048505
0.0490889
0.0498803
0.0508906
0.0521347
0.0536311
0.0554026
0.0574766
0.0598852
0.0626653
0.065858
0.069507
0.073655
0.0783373
0.0835719
0.0893442
0.0955836
0.102166
0.108852
0.115145
0.121847
0.122283
0.128993
0.108192
0.105131
0.106141
0.102161
0.0981775
0.0935368
0.0886757
0.0838272
0.0791581
0.0747875
0.0707785
0.0671554
0.0639167
0.0610463
0.0585207
0.0563138
0.0544003
0.0527565
0.0513615
0.0501974
0.0492492
0.0485046
0.0479543
0.0475912
0.0474108
0.0474108
0.0475912
0.0479543
0.0485046
0.0492492
0.0501974
0.0513615
0.0527565
0.0544003
0.0563138
0.0585207
0.0610463
0.0639167
0.0671554
0.0707785
0.0747875
0.0791581
0.0838272
0.0886757
0.0935368
0.0981775
0.102161
0.106141
0.105131
0.108192
0.090723
0.0901236
0.0921779
0.0903006
0.0881819
0.085276
0.081929
0.0783456
0.0747078
0.0711634
0.0678102
0.0647059
0.0618779
0.0593331
0.0570666
0.0550666
0.0533185
0.0518069
0.0505173
0.0494365
0.048553
0.0478575
0.0473423
0.0470019
0.0468327
0.0468327
0.0470019
0.0473423
0.0478575
0.048553
0.0494365
0.0505173
0.0518069
0.0533185
0.0550666
0.0570666
0.0593331
0.0618779
0.0647059
0.0678102
0.0711634
0.0747078
0.0783456
0.081929
0.085276
0.0881819
0.0903006
0.0921779
0.0901236
0.090723
0.0758309
0.0769104
0.0797351
0.0794803
0.078864
0.0774188
0.0753914
0.0729465
0.0702621
0.0674987
0.064777
0.0621798
0.0597578
0.0575384
0.0555329
0.0537425
0.0521629
0.0507867
0.0496054
0.0486104
0.0477939
0.0471491
0.0466704
0.0463536
0.0461959
0.0461959
0.0463536
0.0466704
0.0471491
0.0477939
0.0486104
0.0496054
0.0507867
0.0521629
0.0537425
0.0555329
0.0575384
0.0597578
0.0621798
0.064777
0.0674987
0.0702621
0.0729465
0.0753914
0.0774188
0.078864
0.0794803
0.0797351
0.0769104
0.0758309
0.0629713
0.0652151
0.0686206
0.0696172
0.0702086
0.0699846
0.0690977
0.0676677
0.0658559
0.0638231
0.061703
0.0595962
0.0575719
0.0556742
0.0539288
0.0523489
0.0509395
0.0497006
0.0486295
0.0477221
0.0469742
0.0463814
0.0459402
0.0456477
0.0455019
0.0455019
0.0456477
0.0459402
0.0463814
0.0469742
0.0477221
0.0486295
0.0497006
0.0509395
0.0523489
0.0539288
0.0556742
0.0575719
0.0595962
0.061703
0.0638231
0.0658559
0.0676677
0.0690977
0.0699846
0.0702086
0.0696172
0.0686206
0.0652151
0.0629713
0.0517508
0.0548191
0.0586705
0.060632
0.0621914
0.0629815
0.0630722
0.0625388
0.0615179
0.0601622
0.0586099
0.0569729
0.0553343
0.0537519
0.0522636
0.0508932
0.049654
0.0485531
0.0475933
0.0467747
0.0460963
0.0455565
0.0451535
0.0448858
0.0447522
0.0447522
0.0448858
0.0451535
0.0455565
0.0460963
0.0467747
0.0475933
0.0485531
0.049654
0.0508932
0.0522636
0.0537519
0.0553343
0.0569729
0.0586099
0.0601622
0.0615179
0.0625388
0.0630722
0.0629815
0.0621914
0.060632
0.0586705
0.0548191
0.0517508
0.0418821
0.0455483
0.0497468
0.0524518
0.0547837
0.0564093
0.057331
0.0575825
0.0572721
0.0565381
0.0555168
0.0543261
0.0530584
0.0517824
0.0505461
0.0493824
0.0483123
0.0473491
0.0465006
0.0457713
0.045163
0.0446767
0.0443123
0.0440696
0.0439484
0.0439484
0.0440696
0.0443123
0.0446767
0.045163
0.0457713
0.0465006
0.0473491
0.0483123
0.0493824
0.0505461
0.0517824
0.0530584
0.0543261
0.0555168
0.0565381
0.0572721
0.0575825
0.057331
0.0564093
0.0547837
0.0524518
0.0497468
0.0455483
0.0418821
0.0331534
0.0372635
0.0417345
0.0450105
0.0479548
0.0502627
0.051884
0.0528163
0.0531381
0.0529698
0.052441
0.0516704
0.0507567
0.049776
0.0487848
0.0478235
0.04692
0.0460932
0.0453556
0.0447153
0.0441772
0.0437445
0.0434189
0.0432014
0.0430926
0.0430926
0.0432014
0.0434189
0.0437445
0.0441772
0.0447153
0.0453556
0.0460932
0.04692
0.0478235
0.0487848
0.049776
0.0507567
0.0516704
0.052441
0.0529698
0.0531381
0.0528163
0.051884
0.0502627
0.0479548
0.0450105
0.0417345
0.0372635
0.0331534
0.0254059
0.0298524
0.034537
0.0382486
0.0416734
0.0445322
0.0467364
0.048253
0.0491319
0.0494736
0.0493973
0.0490193
0.0484404
0.0477424
0.0469879
0.0462235
0.0454831
0.0447905
0.0441623
0.0436102
0.0431419
0.0427626
0.0424757
0.0422834
0.042187
0.042187
0.0422834
0.0424757
0.0427626
0.0431419
0.0436102
0.0441623
0.0447905
0.0454831
0.0462235
0.0469879
0.0477424
0.0484404
0.0490193
0.0493973
0.0494736
0.0491319
0.048253
0.0467364
0.0445322
0.0416734
0.0382486
0.034537
0.0298524
0.0254059
0.0185189
0.0232233
0.0280736
0.0321133
0.0359094
0.0392063
0.0418897
0.0439017
0.0452664
0.0460634
0.0463993
0.0463847
0.0461203
0.0456907
0.045163
0.044589
0.0440071
0.0434455
0.0429249
0.0424597
0.0420603
0.0417339
0.0414854
0.0413181
0.041234
0.041234
0.0413181
0.0414854
0.0417339
0.0420603
0.0424597
0.0429249
0.0434456
0.0440071
0.044589
0.045163
0.0456907
0.0461203
0.0463847
0.0463993
0.0460634
0.0452664
0.0439017
0.0418897
0.0392063
0.0359094
0.0321133
0.0280736
0.0232233
0.0185189
0.0123986
0.0173007
0.0222761
0.0265574
0.0306335
0.0342718
0.0373424
0.0397687
0.0415516
0.0427507
0.0434584
0.0437776
0.0438061
0.0436295
0.0433178
0.0429263
0.0424975
0.0420634
0.0416476
0.0412675
0.0409357
0.0406614
0.0404508
0.0403082
0.0402362
0.0402362
0.0403082
0.0404508
0.0406614
0.0409357
0.0412675
0.0416476
0.0420634
0.0424975
0.0429263
0.0433178
0.0436295
0.0438061
0.0437776
0.0434584
0.0427507
0.0415516
0.0397687
0.0373424
0.0342718
0.0306335
0.0265574
0.0222761
0.0173007
0.0123986
0.00697068
0.0120212
0.0170862
0.0215389
0.0258183
0.0297148
0.0330911
0.0358576
0.0379956
0.0395455
0.0405851
0.0412077
0.0415069
0.0415669
0.0414593
0.0412418
0.04096
0.0406488
0.0403346
0.0400374
0.0397717
0.0395483
0.0393748
0.0392565
0.0391965
0.0391965
0.0392565
0.0393748
0.0395483
0.0397717
0.0400374
0.0403346
0.0406488
0.04096
0.0412418
0.0414593
0.0415669
0.0415069
0.0412077
0.0405851
0.0395455
0.0379956
0.0358576
0.0330911
0.0297148
0.0258183
0.0215389
0.0170862
0.0120212
0.00697068
0.00217443
0.0073313
0.012454
0.0170198
0.0214377
0.0255207
0.0291309
0.0321703
0.0346042
0.0364559
0.0377882
0.038684
0.0392308
0.0395104
0.0395943
0.0395416
0.0393999
0.0392066
0.0389905
0.0387734
0.0385718
0.038398
0.0382607
0.0381661
0.0381178
0.0381178
0.0381661
0.0382608
0.038398
0.0385718
0.0387734
0.0389905
0.0392066
0.0393999
0.0395416
0.0395943
0.0395104
0.0392308
0.038684
0.0377882
0.0364559
0.0346042
0.0321703
0.0291309
0.0255207
0.0214377
0.0170198
0.012454
0.0073313
0.00217443
-0.00204098
0.00318431
0.00833554
0.0129658
0.0174673
0.021675
0.0254555
0.0287067
0.0313818
0.0334884
0.0350753
0.0362143
0.0369855
0.0374671
0.0377291
0.0378313
0.0378224
0.0377415
0.0376193
0.0374794
0.0373398
0.037214
0.0371118
0.0370401
0.0370032
0.0370032
0.0370401
0.0371118
0.037214
0.0373398
0.0374794
0.0376193
0.0377415
0.0378224
0.0378313
0.0377291
0.0374671
0.0369855
0.0362143
0.0350753
0.0334884
0.0313818
0.0287067
0.0254555
0.021675
0.0174673
0.0129658
0.00833554
0.00318431
-0.00204098
-0.0057194
-0.000460628
0.00469214
0.0093459
0.0138839
0.0181629
0.0220577
0.0254657
0.0283311
0.0306485
0.0324531
0.0338055
0.0347778
0.0354434
0.03587
0.0361165
0.0362326
0.0362582
0.0362254
0.0361593
0.0360792
0.0359996
0.0359313
0.0358818
0.0358558
0.0358558
0.0358818
0.0359313
0.0359996
0.0360792
0.0361593
0.0362254
0.0362582
0.0362326
0.0361165
0.03587
0.0354434
0.0347778
0.0338055
0.0324531
0.0306485
0.0283311
0.0254657
0.0220577
0.0181629
0.0138839
0.0093459
0.00469214
-0.000460627
-0.0057194
-0.00889975
-0.00364021
0.00148898
0.00613126
0.0106658
0.0149701
0.0189297
0.0224449
0.0254538
0.0279402
0.029927
0.0314637
0.032614
0.0334454
0.0340224
0.0344026
0.0346353
0.0347611
0.034813
0.0348172
0.0347938
0.0347584
0.0347226
0.0346944
0.034679
0.034679
0.0346944
0.0347226
0.0347584
0.0347938
0.0348172
0.034813
0.0347611
0.0346353
0.0344026
0.0340224
0.0334454
0.032614
0.0314637
0.029927
0.0279402
0.0254538
0.0224449
0.0189297
0.0149701
0.0106658
0.00613126
0.00148898
-0.00364021
-0.00889975
-0.0116175
-0.00638786
-0.00130562
0.0032953
0.00779211
0.0120819
0.016063
0.0196407
0.0227502
0.0253666
0.0275017
0.0291944
0.0304996
0.0314786
0.0321918
0.0326945
0.0330353
0.0332547
0.0333863
0.0334567
0.0334872
0.033494
0.0334892
0.0334814
0.0334761
0.0334761
0.0334814
0.0334892
0.033494
0.0334872
0.0334567
0.0333863
0.0332547
0.0330353
0.0326945
0.0321918
0.0314786
0.0304996
0.0291944
0.0275017
0.0253666
0.0227502
0.0196407
0.016063
0.0120819
0.00779211
0.0032953
-0.00130562
-0.00638786
-0.0116175
-0.0139055
-0.00873449
-0.00372082
0.000813123
0.00524296
0.00948417
0.0134486
0.0170489
0.0202196
0.0229294
0.0251806
0.0270019
0.0284396
0.029548
0.0303829
0.0309969
0.0314369
0.0317432
0.0319491
0.0320818
0.0321631
0.0322097
0.0322343
0.0322459
0.0322502
0.0322502
0.0322459
0.0322343
0.0322097
0.0321631
0.0320818
0.0319491
0.0317432
0.0314369
0.0309969
0.0303829
0.029548
0.0284396
0.0270019
0.0251806
0.0229294
0.0202196
0.0170489
0.0134486
0.00948417
0.00524296
0.000813123
-0.00372082
-0.00873449
-0.0139055
-0.0157949
-0.010709
-0.00578375
-0.0013387
0.00299927
0.00716252
0.0110771
0.0146644
0.0178605
0.0206298
0.0229664
0.02489
0.026438
0.0276579
0.0286001
0.029314
0.0298444
0.0302304
0.0305052
0.0306961
0.030825
0.0309091
0.0309614
0.0309912
0.0310047
0.0310047
0.0309912
0.0309614
0.0309091
0.030825
0.0306961
0.0305052
0.0302304
0.0298444
0.029314
0.0286001
0.0276579
0.026438
0.02489
0.0229664
0.0206298
0.0178605
0.0146644
0.0110771
0.00716252
0.00299927
-0.0013387
-0.00578375
-0.010709
-0.0157949
-0.0173157
-0.0123389
-0.00751985
-0.00318239
0.00104263
0.00510287
0.00893865
0.0124812
0.0156703
0.0184677
0.020861
0.0228616
0.0244986
0.0258122
0.0268475
0.0276498
0.0282614
0.0287201
0.0290582
0.0293029
0.0294761
0.0295952
0.0296735
0.0297205
0.0297425
0.0297425
0.0297205
0.0296735
0.0295952
0.0294761
0.0293029
0.0290582
0.0287201
0.0282614
0.0276498
0.0268475
0.0258122
0.0244986
0.0228616
0.020861
0.0184677
0.0156703
0.0124812
0.00893865
0.00510287
0.00104263
-0.00318239
-0.00751985
-0.0123389
-0.0173157
-0.0184964
-0.0136499
-0.00895311
-0.00473909
-0.000644746
0.00329117
0.00702306
0.0104929
0.0136456
0.0164422
0.0188652
0.0209188
0.0226241
0.0240143
0.0251285
0.0260079
0.0266917
0.0272158
0.0276116
0.0279056
0.0281197
0.0282713
0.0283737
0.0284368
0.0284667
0.0284667
0.0284368
0.0283737
0.0282713
0.0281197
0.0279056
0.0276116
0.0272158
0.0266917
0.0260079
0.0251285
0.0240143
0.0226241
0.0209188
0.0188652
0.0164422
0.0136456
0.0104929
0.00702306
0.00329117
-0.000644746
-0.00473909
-0.00895311
-0.0136499
-0.0184964
-0.0193649
-0.0146671
-0.0101062
-0.00602897
-0.00208015
0.00171344
0.00531982
0.00869235
0.0117823
0.0145515
0.0169792
0.019063
0.0208169
0.0222668
0.0234462
0.0243913
0.0251382
0.0257205
0.0261683
0.0265072
0.0267587
0.0269402
0.0270649
0.0271428
0.0271802
0.0271802
0.0271428
0.0270649
0.0269402
0.0267587
0.0265072
0.0261683
0.0257205
0.0251382
0.0243913
0.0234462
0.0222668
0.0208169
0.019063
0.0169792
0.0145515
0.0117823
0.00869235
0.00531982
0.00171344
-0.00208015
-0.00602897
-0.0101062
-0.0146671
-0.0193649
-0.0199478
-0.0154138
-0.0110007
-0.00707131
-0.00328035
0.000355753
0.00381809
0.00707167
0.0100753
0.0127931
0.0152022
0.0172949
0.0190784
0.020572
0.021803
0.0228028
0.0236039
0.0242372
0.0247312
0.0251104
0.0253959
0.0256046
0.0257498
0.0258413
0.0258854
0.0258854
0.0258413
0.0257498
0.0256046
0.0253959
0.0251104
0.0247312
0.0242372
0.0236039
0.0228028
0.021803
0.020572
0.0190784
0.0172949
0.0152022
0.0127931
0.0100753
0.00707167
0.00381809
0.000355753
-0.00328035
-0.00707131
-0.0110007
-0.0154138
-0.0199478
-0.0202707
-0.0159126
-0.0116569
-0.00788455
-0.00426167
-0.000795748
0.00250672
0.00562256
0.00851889
0.0111636
0.0135327
0.0156143
0.0174096
0.0189314
0.020201
0.0212447
0.0220911
0.0227683
0.0233027
0.0237179
0.0240337
0.024267
0.0244307
0.0245346
0.0245849
0.0245849
0.0245346
0.0244307
0.024267
0.0240337
0.0237179
0.0233027
0.0227683
0.0220911
0.0212447
0.020201
0.0189314
0.0174096
0.0156142
0.0135327
0.0111636
0.00851889
0.00562256
0.00250672
-0.000795748
-0.00426167
-0.00788455
-0.0116569
-0.0159126
-0.0202707
-0.0203578
-0.0161846
-0.0120939
-0.00848628
-0.00503996
-0.00175485
0.00137428
0.00433609
0.00710672
0.00965871
0.0119682
0.0140202
0.0158106
0.017346
0.0186416
0.0197188
0.0206019
0.021316
0.0218853
0.0223317
0.0226745
0.0229297
0.02311
0.023225
0.0232808
0.0232808
0.023225
0.02311
0.0229297
0.0226745
0.0223317
0.0218853
0.021316
0.0206019
0.0197188
0.0186416
0.017346
0.0158106
0.0140202
0.0119682
0.00965871
0.00710672
0.00433609
0.00137428
-0.00175485
-0.00503996
-0.00848628
-0.0120939
-0.0161846
-0.0203578
-0.0202317
-0.0162496
-0.0123297
-0.00889323
-0.00563062
-0.0025353
0.000409088
0.00320285
0.00583162
0.00827346
0.0105058
0.0125112
0.0142811
0.0158161
0.0171259
0.0182265
0.0191379
0.019882
0.0204806
0.0209539
0.0213201
0.0215945
0.0217895
0.0219143
0.0219751
0.0219751
0.0219143
0.0217895
0.0215945
0.0213201
0.0209539
0.0204806
0.019882
0.0191379
0.0182265
0.0171259
0.0158161
0.0142811
0.0125112
0.0105058
0.00827346
0.00583162
0.00320285
0.000409087
-0.0025353
-0.00563062
-0.00889323
-0.0123297
-0.0162496
-0.0202317
-0.019913
-0.0161256
-0.0123809
-0.00912128
-0.0060486
-0.00315073
-0.000400832
0.00221288
0.00468578
0.00700213
0.00914147
0.011085
0.0128198
0.0143417
0.0156544
0.0167688
0.0177005
0.018468
0.0190904
0.0195862
0.0199723
0.0202633
0.0204709
0.0206043
0.0206695
0.0206695
0.0206043
0.0204709
0.0202633
0.0199723
0.0195862
0.0190904
0.018468
0.0177005
0.0167688
0.0156544
0.0143417
0.0128198
0.011085
0.00914147
0.00700213
0.00468578
0.00221288
-0.000400832
-0.00315073
-0.0060486
-0.00912128
-0.0123809
-0.0161256
-0.019913
-0.0194197
-0.0158289
-0.0122628
-0.00918534
-0.00630838
-0.00361477
-0.00106769
0.00135574
0.00366075
0.00583827
0.00787066
0.00973835
0.0114252
0.012922
0.0142271
0.0153462
0.0162906
0.0170751
0.017716
0.01823
0.0186326
0.0189374
0.0191558
0.0192965
0.0193653
0.0193653
0.0192965
0.0191558
0.0189374
0.0186326
0.01823
0.017716
0.0170751
0.0162906
0.0153462
0.0142271
0.012922
0.0114252
0.00973835
0.00787066
0.00583827
0.00366075
0.00135574
-0.00106769
-0.00361477
-0.00630838
-0.00918534
-0.0122628
-0.0158289
-0.0194197
-0.0187667
-0.0153734
-0.011989
-0.00909938
-0.00642399
-0.00394094
-0.00160398
0.000620496
0.00274744
0.00477471
0.00668805
0.00846776
0.0100949
0.0115558
0.0128436
0.013959
0.0149088
0.0157041
0.0163585
0.0168864
0.017302
0.017618
0.0178452
0.0179919
0.0180638
0.0180638
0.0179919
0.0178452
0.017618
0.017302
0.0168864
0.0163585
0.0157041
0.0149088
0.013959
0.0128436
0.0115558
0.0100949
0.00846776
0.00668805
0.00477471
0.00274744
0.000620496
-0.00160398
-0.00394094
-0.00642399
-0.00909938
-0.011989
-0.0153734
-0.0187667
-0.0179652
-0.0147706
-0.0115713
-0.00887627
-0.00640893
-0.00414271
-0.00202242
-4.26889e-06
0.00193614
0.00380364
0.00558764
0.00726885
0.00882604
0.0102413
0.0115031
0.012607
0.0135554
0.0143557
0.0150185
0.0155563
0.0159816
0.0163062
0.0165402
0.0166916
0.0167659
0.0167659
0.0166916
0.0165402
0.0163062
0.0159816
0.0155563
0.0150185
0.0143557
0.0135554
0.012607
0.0115031
0.0102413
0.00882604
0.00726885
0.00558764
0.00380364
0.00193614
-4.26907e-06
-0.00202242
-0.00414271
-0.00640893
-0.00887627
-0.0115713
-0.0147706
-0.0179652
-0.017022
-0.0140286
-0.0110198
-0.0085277
-0.00627618
-0.0042335
-0.00233602
-0.000530437
0.00121655
0.00291655
0.0045628
0.0061367
0.0076151
0.00897636
0.0102043
0.0112896
0.0122304
0.0130302
0.0136967
0.0142403
0.014672
0.0150025
0.0152414
0.0153962
0.0154723
0.0154723
0.0153962
0.0152414
0.0150025
0.014672
0.0142403
0.0136968
0.0130302
0.0122304
0.0112896
0.0102043
0.00897636
0.0076151
0.0061367
0.0045628
0.00291655
0.00121654
-0.000530438
-0.00233602
-0.0042335
-0.00627618
-0.0085277
-0.0110198
-0.0140286
-0.017022
-0.0159379
-0.0131519
-0.0103419
-0.00806399
-0.0060381
-0.00422661
-0.00255801
-0.000970359
0.000577769
0.00210432
0.00360625
0.0050658
0.00645818
0.00775831
0.00894554
0.0100061
0.0109335
0.0117276
0.0123935
0.012939
0.0133738
0.0137076
0.0139493
0.0141062
0.0141833
0.0141833
0.0141062
0.0139493
0.0137076
0.0133738
0.012939
0.0123935
0.0117276
0.0109335
0.0100061
0.00894554
0.00775831
0.00645818
0.0050658
0.00360624
0.00210432
0.000577769
-0.00097036
-0.00255801
-0.00422661
-0.0060381
-0.00806399
-0.0103419
-0.0131519
-0.0159379
-0.014708
-0.0121405
-0.00954271
-0.00749418
-0.00570662
-0.00413547
-0.00270211
-0.00133706
8.15869e-06
0.00135707
0.00270998
0.00404997
0.00535076
0.00658405
0.00772497
0.00875524
0.00966416
0.0104481
0.011109
0.0116527
0.0120874
0.0124219
0.0126644
0.0128219
0.0128994
0.0128994
0.0128219
0.0126644
0.0124219
0.0120874
0.0116527
0.011109
0.0104481
0.00966416
0.00875524
0.00772497
0.00658405
0.00535076
0.00404997
0.00270998
0.00135707
8.15846e-06
-0.00133706
-0.00270211
-0.00413547
-0.00570662
-0.00749418
-0.00954271
-0.0121405
-0.014708
-0.0133203
-0.0109904
-0.00862531
-0.0068264
-0.00529364
-0.00397403
-0.00278289
-0.00164458
-0.000505003
0.000663873
0.00186507
0.00308226
0.00428769
0.00544998
0.00654022
0.00753578
0.00842187
0.00919131
0.00984328
0.0103816
0.0108131
0.0111455
0.0113868
0.0115435
0.0116207
0.0116207
0.0115435
0.0113868
0.0111455
0.0108131
0.0103816
0.00984328
0.00919131
0.00842187
0.00753578
0.00654022
0.00544998
0.00428769
0.00308226
0.00186507
0.000663873
-0.000505004
-0.00164458
-0.00278289
-0.00397403
-0.00529363
-0.0068264
-0.00862531
-0.0109904
-0.0133203
-0.0117559
-0.00969141
-0.00758897
-0.00606575
-0.00480845
-0.00375403
-0.002813
-0.00190533
-0.000973083
1.48983e-05
0.00106344
0.00215633
0.0032642
0.00435263
0.00538882
0.00634597
0.0072053
0.00795627
0.00859541
0.00912467
0.00954948
0.00987703
0.0101148
0.0102692
0.0103452
0.0103452
0.0102692
0.0101148
0.00987703
0.00954948
0.00912467
0.00859541
0.00795627
0.0072053
0.00634597
0.00538882
0.00435263
0.0032642
0.00215633
0.00106344
1.48981e-05
-0.000973083
-0.00190533
-0.002813
-0.00375403
-0.00480845
-0.00606575
-0.00758897
-0.00969141
-0.0117559
-0.00998126
-0.00821789
-0.00641743
-0.00520139
-0.00424451
-0.00347195
-0.0027909
-0.00211893
-0.00139624
-0.000590203
0.000304695
0.00127175
0.00227973
0.0032912
0.00426955
0.00518399
0.00601198
0.00673976
0.00736142
0.00787717
0.00829138
0.00861065
0.00884218
0.00899247
0.00906639
0.00906639
0.00899247
0.00884218
0.00861065
0.00829138
0.00787717
0.00736142
0.00673976
0.00601198
0.00518399
0.00426955
0.0032912
0.00227973
0.00127175
0.000304695
-0.000590203
-0.00139624
-0.00211893
-0.0027909
-0.00347195
-0.00424451
-0.00520139
-0.00641743
-0.00821789
-0.00998126
-0.0079311
-0.00651297
-0.00506847
-0.00420299
-0.00358225
-0.00311692
-0.00271226
-0.00228564
-0.00177764
-0.00115614
-0.000416344
0.000423668
0.00133037
0.0022631
0.00318148
0.00405071
0.00484458
0.00554621
0.00614734
0.00664658
0.00704739
0.00735592
0.00757931
0.00772411
0.00779531
0.00779531
0.00772411
0.00757931
0.00735592
0.00704739
0.00664658
0.00614734
0.00554621
0.00484458
0.00405071
0.00318148
0.0022631
0.00133037
0.000423668
-0.000416344
-0.00115614
-0.00177764
-0.00228564
-0.00271226
-0.00311692
-0.00358225
-0.00420299
-0.00506847
-0.00651297
-0.0079311
-0.00555194
-0.00456875
-0.00359471
-0.00317478
-0.00296674
-0.00286236
-0.00276594
-0.0025976
-0.00230194
-0.00185109
-0.00124448
-0.000504584
0.000330272
0.0012142
0.00210136
0.00295178
0.00373466
0.00442957
0.00502578
0.00552053
0.00591676
0.00622077
0.00644013
0.00658199
0.00665178
0.00665178
0.00658199
0.00644013
0.00622077
0.00591676
0.00552053
0.00502578
0.00442957
0.00373466
0.00295178
0.00210136
0.0012142
0.000330272
-0.000504584
-0.00124448
-0.00185109
-0.00230194
-0.0025976
-0.00276594
-0.00286236
-0.00296674
-0.00317478
-0.00359471
-0.00456875
-0.00555194
-0.00309901
-0.00276307
-0.002503
-0.00269252
-0.00300574
-0.00332045
-0.0035449
-0.00360826
-0.00346643
-0.00310387
-0.00253268
-0.00178785
-0.000919792
1.44175e-05
0.000959146
0.00186648
0.00269995
0.00343578
0.00406207
0.0045766
0.00498402
0.00529292
0.00551327
0.00565434
0.00572313
0.00572313
0.00565434
0.00551327
0.00529292
0.00498402
0.0045766
0.00406207
0.00343578
0.00269995
0.00186648
0.000959146
1.44174e-05
-0.000919792
-0.00178785
-0.00253268
-0.00310387
-0.00346643
-0.00360826
-0.0035449
-0.00332045
-0.00300574
-0.00269252
-0.002503
-0.00276307
-0.00309901
-0.00142145
-0.00188716
-0.00238181
-0.00297244
-0.00351947
-0.00395343
-0.00422202
-0.00428733
-0.00413183
-0.00376119
-0.00320346
-0.0025042
-0.00171882
-0.000903982
-0.000110135
0.000623489
0.00127103
0.00181961
0.00226713
0.00261925
0.00288623
0.0030802
0.00321296
0.00329445
0.00333198
0.00333198
0.00329445
0.00321296
0.0030802
0.00288623
0.00261925
0.00226713
0.00181961
0.00127103
0.000623489
-0.000110135
-0.000903982
-0.00171882
-0.0025042
-0.00320346
-0.00376119
-0.00413183
-0.00428733
-0.00422202
-0.00395343
-0.00351947
-0.00297244
-0.00238181
-0.00188716
-0.00142145
)
;

boundaryField
{
    left
    {
        type            zeroGradient;
    }
    right
    {
        type            zeroGradient;
    }
    up
    {
        type            fixedValue;
        value           uniform 0;
    }
    down
    {
        type            zeroGradient;
    }
    frontAndBack
    {
        type            empty;
    }
}


// ************************************************************************* //
