/*--------------------------------*- C++ -*----------------------------------*\
  =========                 |
  \\      /  F ield         | OpenFOAM: The Open Source CFD Toolbox
   \\    /   O peration     | Website:  https://openfoam.org
    \\  /    A nd           | Version:  6
     \\/     M anipulation  |
\*---------------------------------------------------------------------------*/
FoamFile
{
    version     2.0;
    format      ascii;
    class       volVectorField;
    location    "3200";
    object      U;
}
// * * * * * * * * * * * * * * * * * * * * * * * * * * * * * * * * * * * * * //

dimensions      [0 1 -1 0 0 0 0];

internalField   nonuniform List<vector> 
2500
(
(0.0619341 0.36399 0)
(0.107856 0.401172 0)
(0.0646612 0.400007 0)
(0.0415511 0.400415 0)
(0.0289441 0.400321 0)
(0.0207687 0.40017 0)
(0.0153553 0.400094 -1.29198e-19)
(0.0116458 0.400053 1.29317e-19)
(0.00901943 0.400031 0)
(0.00710976 0.400019 0)
(0.00568832 0.400013 0)
(0.00460761 0.40001 0)
(0.00376965 0.400008 0)
(0.0031078 0.400008 0)
(0.00257567 0.400008 3.09195e-20)
(0.00214039 0.400008 -3.09491e-20)
(0.00177819 0.400009 0)
(0.0014716 0.400009 0)
(0.00120751 0.40001 0)
(0.000975939 0.40001 0)
(0.000769094 0.400011 0)
(0.000580761 0.400011 0)
(0.00040584 0.400011 0)
(0.000240002 0.400011 0)
(7.94257e-05 0.400012 0)
(-7.94257e-05 0.400012 0)
(-0.000240002 0.400011 0)
(-0.00040584 0.400011 0)
(-0.000580761 0.400011 0)
(-0.000769094 0.400011 0)
(-0.000975939 0.40001 0)
(-0.00120751 0.40001 0)
(-0.0014716 0.400009 0)
(-0.00177819 0.400009 0)
(-0.00214039 0.400008 -3.09491e-20)
(-0.00257567 0.400008 3.09195e-20)
(-0.0031078 0.400008 0)
(-0.00376965 0.400008 0)
(-0.00460761 0.40001 0)
(-0.00568832 0.400013 0)
(-0.00710976 0.400019 0)
(-0.00901943 0.400031 0)
(-0.0116458 0.400053 1.29317e-19)
(-0.0153553 0.400094 -1.29198e-19)
(-0.0207687 0.40017 0)
(-0.0289441 0.400321 0)
(-0.0415511 0.400415 0)
(-0.0646612 0.400007 0)
(-0.107856 0.401172 0)
(-0.0619341 0.36399 0)
(0.115356 0.384198 8.44491e-19)
(0.209719 0.432399 -9.05545e-19)
(0.148373 0.422047 0)
(0.107185 0.414708 0)
(0.0788972 0.409644 0)
(0.058593 0.406401 0)
(0.0442938 0.404381 -1.73931e-19)
(0.0340706 0.403083 1.74032e-19)
(0.0266297 0.402225 -1.34665e-19)
(0.0211176 0.401643 1.34797e-19)
(0.016962 0.401239 0)
(0.0137746 0.400953 0)
(0.0112882 0.400746 4.72952e-20)
(0.00931622 0.400595 -4.73515e-20)
(0.00772635 0.400483 0)
(0.00642342 0.400399 -3.97695e-20)
(0.00533794 0.400335 7.78595e-20)
(0.00441838 0.400287 -3.80869e-20)
(0.00362591 0.400249 0)
(0.00293078 0.400221 0)
(0.00230975 0.4002 0)
(0.00174421 0.400184 -8.29612e-21)
(0.0012189 0.400173 8.30369e-21)
(0.000720838 0.400165 -4.07301e-21)
(0.000238555 0.400162 4.07631e-21)
(-0.000238555 0.400162 4.07631e-21)
(-0.000720838 0.400165 -4.07301e-21)
(-0.0012189 0.400173 8.30369e-21)
(-0.00174421 0.400184 -8.29612e-21)
(-0.00230975 0.4002 0)
(-0.00293078 0.400221 0)
(-0.00362591 0.400249 0)
(-0.00441838 0.400287 -3.80869e-20)
(-0.00533794 0.400335 7.78595e-20)
(-0.00642342 0.400399 -3.97695e-20)
(-0.00772635 0.400483 0)
(-0.00931622 0.400595 -4.73515e-20)
(-0.0112882 0.400746 4.72952e-20)
(-0.0137746 0.400953 0)
(-0.016962 0.401239 0)
(-0.0211176 0.401643 1.34797e-19)
(-0.0266297 0.402225 -1.34665e-19)
(-0.0340706 0.403083 1.74032e-19)
(-0.0442938 0.404381 -1.73931e-19)
(-0.058593 0.406401 0)
(-0.0788972 0.409644 0)
(-0.107185 0.414708 0)
(-0.148373 0.422047 0)
(-0.209719 0.432399 -9.05545e-19)
(-0.115356 0.384198 8.44491e-19)
(0.122985 0.356959 0)
(0.242915 0.441183 -4.64311e-19)
(0.19704 0.442298 4.6519e-19)
(0.155361 0.432614 -2.91631e-19)
(0.119714 0.423303 2.94144e-19)
(0.0916466 0.41645 0)
(0.0707014 0.411726 0)
(0.0551217 0.408485 1.51319e-19)
(0.0434783 0.406245 -1.51411e-19)
(0.0346939 0.404676 0)
(0.0279852 0.403561 0)
(0.0227923 0.402758 1.01991e-19)
(0.0187153 0.402172 -1.02098e-19)
(0.0154668 0.401739 0)
(0.0128393 0.401414 0)
(0.0106811 0.401169 0)
(0.00888019 0.400983 0)
(0.0073528 0.40084 0)
(0.00603545 0.400731 0)
(0.00487924 0.400647 0)
(0.00384582 0.400584 1.69598e-20)
(0.00290445 0.400537 -1.69751e-20)
(0.00202984 0.400504 0)
(0.00120046 0.400483 0)
(0.000397291 0.400473 0)
(-0.000397291 0.400473 0)
(-0.00120046 0.400483 0)
(-0.00202984 0.400504 0)
(-0.00290445 0.400537 -1.69751e-20)
(-0.00384582 0.400584 1.69598e-20)
(-0.00487924 0.400647 0)
(-0.00603545 0.400731 0)
(-0.0073528 0.40084 0)
(-0.00888019 0.400983 0)
(-0.0106811 0.401169 0)
(-0.0128393 0.401414 0)
(-0.0154668 0.401739 0)
(-0.0187153 0.402172 -1.02098e-19)
(-0.0227923 0.402758 1.01991e-19)
(-0.0279852 0.403561 0)
(-0.0346939 0.404676 0)
(-0.0434783 0.406245 -1.51411e-19)
(-0.0551217 0.408485 1.51319e-19)
(-0.0707014 0.411726 0)
(-0.0916466 0.41645 0)
(-0.119714 0.423303 2.94144e-19)
(-0.155361 0.432614 -2.91631e-19)
(-0.19704 0.442298 4.6519e-19)
(-0.242915 0.441183 -4.64311e-19)
(-0.122985 0.356959 0)
(0.114309 0.31369 0)
(0.244044 0.435065 4.10499e-19)
(0.222143 0.457371 -7.2827e-20)
(0.188264 0.450681 -3.37291e-19)
(0.151388 0.439117 2.28384e-19)
(0.119427 0.429082 -3.48665e-20)
(0.0940633 0.421464 -1.96401e-19)
(0.0743957 0.415914 0)
(0.0592743 0.411916 1.33492e-19)
(0.0476339 0.409035 -1.33594e-19)
(0.038615 0.406945 1.1029e-19)
(0.0315605 0.405417 -1.10392e-19)
(0.0259796 0.404287 0)
(0.0215083 0.403445 -4.44704e-20)
(0.0178771 0.402811 8.65498e-20)
(0.0148857 0.40233 -4.2077e-20)
(0.0123842 0.401962 3.82965e-20)
(0.0102592 0.40168 -1.45036e-21)
(0.00842422 0.401463 -3.69194e-20)
(0.00681229 0.401297 1.73918e-20)
(0.00537057 0.401171 -1.74073e-20)
(0.00405661 0.401078 0)
(0.00283536 0.401012 0)
(0.00167697 0.40097 0)
(0.00055501 0.40095 0)
(-0.00055501 0.40095 0)
(-0.00167697 0.40097 0)
(-0.00283536 0.401012 0)
(-0.00405661 0.401078 0)
(-0.00537057 0.401171 -1.74073e-20)
(-0.00681229 0.401297 1.73918e-20)
(-0.00842422 0.401463 -3.69194e-20)
(-0.0102592 0.40168 -1.45036e-21)
(-0.0123842 0.401962 3.82965e-20)
(-0.0148857 0.40233 -4.2077e-20)
(-0.0178771 0.402811 8.65498e-20)
(-0.0215083 0.403445 -4.44704e-20)
(-0.0259796 0.404287 0)
(-0.0315605 0.405417 -1.10392e-19)
(-0.038615 0.406945 1.1029e-19)
(-0.0476339 0.409035 -1.33594e-19)
(-0.0592743 0.411916 1.33492e-19)
(-0.0743957 0.415914 0)
(-0.0940633 0.421464 -1.96401e-19)
(-0.119427 0.429082 -3.48665e-20)
(-0.151388 0.439117 2.28384e-19)
(-0.188264 0.450681 -3.37291e-19)
(-0.222143 0.457371 -7.2827e-20)
(-0.244044 0.435065 4.10499e-19)
(-0.114309 0.31369 0)
(0.101334 0.274646 -4.47982e-19)
(0.230427 0.42325 4.64524e-19)
(0.231152 0.466636 3.03679e-19)
(0.208438 0.466466 -3.04689e-19)
(0.174573 0.45506 0)
(0.141869 0.442916 0)
(0.114116 0.432726 1.64486e-19)
(0.0916247 0.424836 -1.65385e-19)
(0.0737977 0.418917 -1.31536e-19)
(0.0597712 0.414525 1.31652e-19)
(0.0487289 0.411271 0)
(0.0399901 0.408853 -5.05986e-20)
(0.0330164 0.407046 3.45308e-21)
(0.0273932 0.405685 9.15922e-20)
(0.0228046 0.404654 -4.43955e-20)
(0.0190109 0.403867 3.99771e-20)
(0.0158299 0.403263 -1.70717e-21)
(0.0131223 0.402798 -3.8344e-20)
(0.0107806 0.40244 -1.78883e-20)
(0.00872109 0.402165 1.7904e-20)
(0.00687738 0.401957 1.70617e-20)
(0.00519587 0.401802 -2.54693e-20)
(0.00363219 0.401693 1.67002e-20)
(0.00214847 0.401624 -4.1826e-21)
(0.00071109 0.40159 -4.12563e-21)
(-0.00071109 0.40159 -4.12563e-21)
(-0.00214847 0.401624 -4.1826e-21)
(-0.00363219 0.401693 1.67002e-20)
(-0.00519587 0.401802 -2.54693e-20)
(-0.00687738 0.401957 1.70617e-20)
(-0.00872109 0.402165 1.7904e-20)
(-0.0107806 0.40244 -1.78883e-20)
(-0.0131223 0.402798 -3.8344e-20)
(-0.0158299 0.403263 -1.70717e-21)
(-0.0190109 0.403867 3.99771e-20)
(-0.0228046 0.404654 -4.43955e-20)
(-0.0273932 0.405685 9.15922e-20)
(-0.0330164 0.407046 3.45308e-21)
(-0.0399901 0.408853 -5.05986e-20)
(-0.0487289 0.411271 0)
(-0.0597712 0.414525 1.31652e-19)
(-0.0737977 0.418917 -1.31536e-19)
(-0.0916247 0.424836 -1.65385e-19)
(-0.114116 0.432726 1.64486e-19)
(-0.141869 0.442916 0)
(-0.174573 0.45506 0)
(-0.208438 0.466466 -3.04689e-19)
(-0.231152 0.466636 3.03679e-19)
(-0.230427 0.42325 4.64524e-19)
(-0.101334 0.274646 -4.47982e-19)
(0.0877909 0.241972 0)
(0.210594 0.408503 0)
(0.229502 0.470211 0)
(0.218585 0.47876 0)
(0.190317 0.469771 0)
(0.159217 0.456872 0)
(0.130803 0.444757 0)
(0.106665 0.434757 0)
(0.0868996 0.426929 1.28634e-19)
(0.0709793 0.420945 -2.46453e-19)
(0.0582277 0.416412 1.17585e-19)
(0.0480055 0.412987 0)
(0.039769 0.410395 0)
(0.0330789 0.408425 0)
(0.0275897 0.40692 0)
(0.0230324 0.405765 0)
(0.0191989 0.404876 0)
(0.0159279 0.404188 0)
(0.0130937 0.403657 0)
(0.0105973 0.403249 0)
(0.00835997 0.402939 0)
(0.00631766 0.402709 0)
(0.00441723 0.402546 0)
(0.00261314 0.402442 0)
(0.000864938 0.402392 0)
(-0.000864938 0.402392 0)
(-0.00261314 0.402442 0)
(-0.00441723 0.402546 0)
(-0.00631766 0.402709 0)
(-0.00835997 0.402939 0)
(-0.0105973 0.403249 0)
(-0.0130937 0.403657 0)
(-0.0159279 0.404188 0)
(-0.0191989 0.404876 0)
(-0.0230324 0.405765 0)
(-0.0275897 0.40692 0)
(-0.0330789 0.408425 0)
(-0.039769 0.410395 0)
(-0.0480055 0.412987 0)
(-0.0582277 0.416412 1.17585e-19)
(-0.0709793 0.420945 -2.46453e-19)
(-0.0868996 0.426929 1.28634e-19)
(-0.106665 0.434757 0)
(-0.130803 0.444757 0)
(-0.159217 0.456872 0)
(-0.190317 0.469771 0)
(-0.218585 0.47876 0)
(-0.229502 0.470211 0)
(-0.210594 0.408503 0)
(-0.0877909 0.241972 0)
(0.0752263 0.214567 0)
(0.189171 0.39203 0)
(0.221305 0.468964 -2.45663e-19)
(0.221242 0.487308 2.44391e-19)
(0.199808 0.482506 0)
(0.171904 0.470196 0)
(0.144213 0.456961 0)
(0.119467 0.44525 -1.36727e-19)
(0.0984907 0.435663 2.62457e-19)
(0.0811671 0.428101 -1.25508e-19)
(0.067033 0.422241 0)
(0.0555438 0.417737 -4.94785e-20)
(0.0461882 0.414282 3.15084e-21)
(0.0385278 0.411629 4.6428e-20)
(0.0322035 0.409588 4.15546e-20)
(0.026928 0.408011 -8.12814e-20)
(0.0224741 0.40679 3.97237e-20)
(0.0186629 0.405844 0)
(0.0153533 0.405111 -1.78589e-20)
(0.0124331 0.404546 4.54964e-22)
(0.00981242 0.404116 3.61048e-22)
(0.00741767 0.403797 1.70817e-20)
(0.00518752 0.403571 0)
(0.00306928 0.403427 0)
(0.00101599 0.403356 0)
(-0.00101599 0.403356 0)
(-0.00306928 0.403427 0)
(-0.00518752 0.403571 0)
(-0.00741767 0.403797 1.70817e-20)
(-0.00981242 0.404116 3.61048e-22)
(-0.0124331 0.404546 4.54964e-22)
(-0.0153533 0.405111 -1.78589e-20)
(-0.0186629 0.405844 0)
(-0.0224741 0.40679 3.97237e-20)
(-0.026928 0.408011 -8.12814e-20)
(-0.0322035 0.409588 4.15546e-20)
(-0.0385278 0.411629 4.6428e-20)
(-0.0461882 0.414282 3.15084e-21)
(-0.0555438 0.417737 -4.94785e-20)
(-0.067033 0.422241 0)
(-0.0811671 0.428101 -1.25508e-19)
(-0.0984907 0.435663 2.62457e-19)
(-0.119467 0.44525 -1.36727e-19)
(-0.144213 0.456961 0)
(-0.171904 0.470196 0)
(-0.199808 0.482506 0)
(-0.221242 0.487308 2.44391e-19)
(-0.221305 0.468964 -2.45663e-19)
(-0.189171 0.39203 0)
(-0.0752263 0.214567 0)
(0.0643053 0.19181 0)
(0.168517 0.375006 2.47251e-19)
(0.209442 0.464085 -2.39368e-19)
(0.21854 0.492354 -1.94328e-19)
(0.204211 0.492922 1.94678e-19)
(0.180458 0.482384 1.57587e-19)
(0.154532 0.468874 -1.58845e-19)
(0.130057 0.455948 1.31091e-19)
(0.108531 0.444853 -1.31981e-19)
(0.0902756 0.43581 -1.11679e-19)
(0.075086 0.428634 1.12195e-19)
(0.0625541 0.423018 0)
(0.0522326 0.41865 0)
(0.0437069 0.415262 0)
(0.0366202 0.412632 0)
(0.0306775 0.410588 0)
(0.0256397 0.408997 0)
(0.021315 0.407758 -3.6651e-20)
(0.0175498 0.406796 3.66801e-20)
(0.0142212 0.406053 0)
(0.0112292 0.405486 0)
(0.0084918 0.405065 0)
(0.00594029 0.404767 0)
(0.00351527 0.404576 -4.12602e-21)
(0.00116372 0.404483 4.12791e-21)
(-0.00116372 0.404483 4.12791e-21)
(-0.00351527 0.404576 -4.12602e-21)
(-0.00594029 0.404767 0)
(-0.0084918 0.405065 0)
(-0.0112292 0.405486 0)
(-0.0142212 0.406053 0)
(-0.0175498 0.406796 3.66801e-20)
(-0.021315 0.407758 -3.6651e-20)
(-0.0256397 0.408997 0)
(-0.0306775 0.410588 0)
(-0.0366202 0.412632 0)
(-0.0437069 0.415262 0)
(-0.0522326 0.41865 0)
(-0.0625541 0.423018 0)
(-0.075086 0.428634 1.12195e-19)
(-0.0902756 0.43581 -1.11679e-19)
(-0.108531 0.444853 -1.31981e-19)
(-0.130057 0.455948 1.31091e-19)
(-0.154532 0.468874 -1.58845e-19)
(-0.180458 0.482384 1.57587e-19)
(-0.204211 0.492922 1.94678e-19)
(-0.21854 0.492354 -1.94328e-19)
(-0.209442 0.464085 -2.39368e-19)
(-0.168517 0.375006 2.47251e-19)
(-0.0643053 0.19181 0)
(0.0551163 0.173119 -2.27534e-19)
(0.149636 0.358276 2.34708e-19)
(0.195786 0.456662 0)
(0.212151 0.494344 -1.76732e-19)
(0.204588 0.500943 1.76565e-19)
(0.185442 0.493127 0)
(0.162012 0.480141 0)
(0.138517 0.466545 0)
(0.117021 0.454259 0)
(0.0982735 0.443895 0)
(0.0823468 0.435465 0)
(0.0689976 0.428744 0)
(0.0578684 0.423442 0)
(0.0485883 0.419282 0)
(0.0408175 0.416025 0)
(0.0342633 0.413476 0)
(0.0286817 0.411481 0)
(0.023873 0.409922 0)
(0.0196747 0.408706 0)
(0.0159547 0.407765 0)
(0.012605 0.407046 0)
(0.00953628 0.406511 -8.36721e-21)
(0.00667292 0.406132 8.37165e-21)
(0.00394957 0.405889 0)
(0.00130762 0.405771 0)
(-0.00130762 0.405771 0)
(-0.00394957 0.405889 0)
(-0.00667292 0.406132 8.37165e-21)
(-0.00953628 0.406511 -8.36721e-21)
(-0.012605 0.407046 0)
(-0.0159547 0.407765 0)
(-0.0196747 0.408706 0)
(-0.023873 0.409922 0)
(-0.0286817 0.411481 0)
(-0.0342633 0.413476 0)
(-0.0408175 0.416025 0)
(-0.0485883 0.419282 0)
(-0.0578684 0.423442 0)
(-0.0689976 0.428744 0)
(-0.0823468 0.435465 0)
(-0.0982735 0.443895 0)
(-0.117021 0.454259 0)
(-0.138517 0.466545 0)
(-0.162012 0.480141 0)
(-0.185442 0.493127 0)
(-0.204588 0.500943 1.76565e-19)
(-0.212151 0.494344 -1.76732e-19)
(-0.195786 0.456662 0)
(-0.149636 0.358276 2.34708e-19)
(-0.0551163 0.173119 -2.27534e-19)
(0.0474685 0.157796 0)
(0.132803 0.342296 0)
(0.181499 0.447558 0)
(0.203335 0.49378 -1.6024e-19)
(0.201856 0.506654 1.16588e-20)
(0.187408 0.502265 1.48486e-19)
(0.166937 0.490514 0)
(0.144967 0.476789 -1.18956e-19)
(0.123995 0.463671 1.19812e-19)
(0.105154 0.452195 0)
(0.0887915 0.442617 0)
(0.0748463 0.43483 0)
(0.0630691 0.428596 0)
(0.0531489 0.423647 0)
(0.044776 0.419737 -4.02356e-20)
(0.0376695 0.416655 4.02789e-20)
(0.0315875 0.41423 0)
(0.026327 0.412325 0)
(0.0217199 0.410835 0)
(0.0176275 0.409678 0)
(0.0139353 0.408793 0)
(0.0105476 0.408133 8.33077e-21)
(0.00738302 0.407664 -8.33472e-21)
(0.00437079 0.407364 0)
(0.00144723 0.407217 0)
(-0.00144723 0.407217 0)
(-0.00437079 0.407364 0)
(-0.00738302 0.407664 -8.33472e-21)
(-0.0105476 0.408133 8.33077e-21)
(-0.0139353 0.408793 0)
(-0.0176275 0.409678 0)
(-0.0217199 0.410835 0)
(-0.026327 0.412325 0)
(-0.0315875 0.41423 0)
(-0.0376695 0.416655 4.02789e-20)
(-0.044776 0.419737 -4.02356e-20)
(-0.0531489 0.423647 0)
(-0.0630691 0.428596 0)
(-0.0748463 0.43483 0)
(-0.0887915 0.442617 0)
(-0.105154 0.452195 0)
(-0.123995 0.463671 1.19812e-19)
(-0.144967 0.476789 -1.18956e-19)
(-0.166937 0.490514 0)
(-0.187408 0.502265 1.48486e-19)
(-0.201856 0.506654 1.16588e-20)
(-0.203335 0.49378 -1.6024e-19)
(-0.181499 0.447558 0)
(-0.132803 0.342296 0)
(-0.0474685 0.157796 0)
(0.0410938 0.145164 -1.66546e-19)
(0.117948 0.327268 1.72493e-19)
(0.16727 0.437417 0)
(0.193012 0.491148 0)
(0.196782 0.510238 0)
(0.186871 0.509746 -1.27259e-19)
(0.169604 0.499826 1.27948e-19)
(0.149556 0.486488 0)
(0.129514 0.47291 0)
(0.110929 0.460564 0)
(0.0944107 0.449975 0)
(0.0800823 0.441192 0)
(0.0678149 0.434051 -4.30764e-20)
(0.0573704 0.428314 4.32191e-20)
(0.0484797 0.423738 3.9571e-20)
(0.0408828 0.420104 -3.96543e-20)
(0.0343461 0.417227 0)
(0.0286681 0.414957 -1.79069e-20)
(0.0236783 0.413174 4.64313e-22)
(0.019234 0.411786 1.74669e-20)
(0.0152156 0.410721 0)
(0.0115225 0.409926 -8.28185e-21)
(0.00806837 0.409361 8.28531e-21)
(0.00477764 0.408998 0)
(0.00158212 0.408821 0)
(-0.00158212 0.408821 0)
(-0.00477764 0.408998 0)
(-0.00806837 0.409361 8.28531e-21)
(-0.0115225 0.409926 -8.28185e-21)
(-0.0152156 0.410721 0)
(-0.019234 0.411786 1.74669e-20)
(-0.0236783 0.413174 4.64313e-22)
(-0.0286681 0.414957 -1.79069e-20)
(-0.0343461 0.417227 0)
(-0.0408828 0.420104 -3.96543e-20)
(-0.0484797 0.423738 3.9571e-20)
(-0.0573704 0.428314 4.32191e-20)
(-0.0678149 0.434051 -4.30764e-20)
(-0.0800823 0.441192 0)
(-0.0944107 0.449975 0)
(-0.110929 0.460564 0)
(-0.129514 0.47291 0)
(-0.149556 0.486488 0)
(-0.169604 0.499826 1.27948e-19)
(-0.186871 0.509746 -1.27259e-19)
(-0.196782 0.510238 0)
(-0.193012 0.491148 0)
(-0.16727 0.437417 0)
(-0.117948 0.327268 1.72493e-19)
(-0.0410938 0.145164 -1.66546e-19)
(0.0357331 0.134647 1.44657e-19)
(0.104858 0.313249 0)
(0.153483 0.426701 0)
(0.181834 0.486876 1.30499e-19)
(0.189985 0.511917 -1.2937e-19)
(0.184295 0.515595 -1.17616e-19)
(0.170307 0.507979 2.29927e-19)
(0.152447 0.495495 -1.12524e-19)
(0.133654 0.481829 -5.05575e-20)
(0.115627 0.468871 9.90199e-20)
(0.0992075 0.457436 -4.84142e-20)
(0.0846969 0.447751 0)
(0.0720927 0.439749 0)
(0.0612387 0.43324 0)
(0.0519157 0.427997 0)
(0.0438919 0.423799 0)
(0.0369481 0.420456 1.81866e-20)
(0.0308885 0.417804 -1.82139e-20)
(0.0255437 0.415714 -1.72808e-20)
(0.0207692 0.414081 1.72929e-20)
(0.0164422 0.412826 0)
(0.0124582 0.411886 0)
(0.00872698 0.411218 4.07267e-21)
(0.00516893 0.410789 -2.04848e-21)
(0.00171191 0.41058 -2.02568e-21)
(-0.00171191 0.41058 -2.02568e-21)
(-0.00516893 0.410789 -2.04848e-21)
(-0.00872698 0.411218 4.07267e-21)
(-0.0124582 0.411886 0)
(-0.0164422 0.412826 0)
(-0.0207692 0.414081 1.72929e-20)
(-0.0255437 0.415714 -1.72808e-20)
(-0.0308885 0.417804 -1.82139e-20)
(-0.0369481 0.420456 1.81866e-20)
(-0.0438919 0.423799 0)
(-0.0519157 0.427997 0)
(-0.0612387 0.43324 0)
(-0.0720927 0.439749 0)
(-0.0846969 0.447751 0)
(-0.0992075 0.457436 -4.84142e-20)
(-0.115627 0.468871 9.90199e-20)
(-0.133654 0.481829 -5.05575e-20)
(-0.152447 0.495495 -1.12524e-19)
(-0.170307 0.507979 2.29927e-19)
(-0.184295 0.515595 -1.17616e-19)
(-0.189985 0.511917 -1.2937e-19)
(-0.181834 0.486876 1.30499e-19)
(-0.153483 0.426701 0)
(-0.104858 0.313249 0)
(-0.0357331 0.134647 -1.44657e-19)
(0.0311641 0.125782 0)
(0.0932765 0.300213 0)
(0.14033 0.415722 1.22686e-19)
(0.170251 0.481322 -2.62294e-21)
(0.181955 0.511921 -1.15881e-19)
(0.180081 0.51988 0)
(0.169323 0.514927 0)
(0.153809 0.503706 0)
(0.136508 0.490307 0)
(0.119292 0.477003 -4.59944e-20)
(0.103196 0.464904 4.62768e-20)
(0.088689 0.45443 0)
(0.0758949 0.445631 0)
(0.0647442 0.438381 3.93035e-20)
(0.0550743 0.432479 -3.94298e-20)
(0.0466879 0.427717 0)
(0.0393856 0.423898 -1.78899e-20)
(0.0329817 0.420854 1.79202e-20)
(0.0273107 0.418444 0)
(0.0222287 0.416556 0)
(0.0176116 0.4151 -8.24344e-21)
(0.0133521 0.414009 8.24823e-21)
(0.0093571 0.413232 -4.03736e-21)
(0.00554364 0.412732 4.03835e-21)
(0.00183625 0.412488 0)
(-0.00183625 0.412488 0)
(-0.00554364 0.412732 4.03835e-21)
(-0.0093571 0.413232 -4.03736e-21)
(-0.0133521 0.414009 8.24823e-21)
(-0.0176116 0.4151 -8.24344e-21)
(-0.0222287 0.416556 0)
(-0.0273107 0.418444 0)
(-0.0329817 0.420854 1.79202e-20)
(-0.0393856 0.423898 -1.78899e-20)
(-0.0466879 0.427717 0)
(-0.0550743 0.432479 -3.94298e-20)
(-0.0647442 0.438381 3.93035e-20)
(-0.0758949 0.445631 0)
(-0.088689 0.45443 0)
(-0.103196 0.464904 4.62768e-20)
(-0.119292 0.477003 -4.59944e-20)
(-0.136508 0.490307 0)
(-0.153809 0.503706 0)
(-0.169323 0.514927 0)
(-0.180081 0.51988 0)
(-0.181955 0.511921 -1.15881e-19)
(-0.170251 0.481322 -2.62294e-21)
(-0.14033 0.415722 1.22686e-19)
(-0.0932765 0.300213 0)
(-0.0311641 0.125782 0)
(0.0272077 0.118198 -1.02954e-19)
(0.0829579 0.288085 -1.10988e-19)
(0.127885 0.404679 -1.74435e-21)
(0.158569 0.474771 1.05324e-19)
(0.173074 0.510468 0)
(0.174576 0.522699 -9.93793e-20)
(0.16691 0.520662 9.95313e-20)
(0.153809 0.511049 0)
(0.138173 0.498246 -4.53495e-20)
(0.121973 0.484864 1.81731e-21)
(0.106398 0.472293 1.77314e-21)
(0.092065 0.461158 4.25591e-20)
(0.0792194 0.451641 0)
(0.0678809 0.443692 3.82465e-20)
(0.0579483 0.437154 -3.8379e-20)
(0.0492638 0.431832 0)
(0.0416524 0.427536 0)
(0.0349422 0.424092 0)
(0.0289747 0.421355 0)
(0.0236089 0.419202 0)
(0.0187208 0.417538 0)
(0.014202 0.416289 8.05258e-21)
(0.00995718 0.415397 -1.20509e-20)
(0.00590086 0.414824 3.99561e-21)
(0.00195485 0.414543 0)
(-0.00195485 0.414543 0)
(-0.00590086 0.414824 3.99561e-21)
(-0.00995718 0.415397 -1.20509e-20)
(-0.014202 0.416289 8.05258e-21)
(-0.0187208 0.417538 0)
(-0.0236089 0.419202 0)
(-0.0289747 0.421355 0)
(-0.0349422 0.424092 0)
(-0.0416524 0.427536 0)
(-0.0492638 0.431832 0)
(-0.0579483 0.437154 -3.8379e-20)
(-0.0678809 0.443692 3.82465e-20)
(-0.0792194 0.451641 0)
(-0.092065 0.461158 4.25591e-20)
(-0.106398 0.472293 1.77314e-21)
(-0.121973 0.484864 1.81731e-21)
(-0.138173 0.498246 -4.53495e-20)
(-0.153809 0.511049 0)
(-0.16691 0.520662 9.95313e-20)
(-0.174576 0.522699 -9.93793e-20)
(-0.173074 0.510468 0)
(-0.158569 0.474771 1.05324e-19)
(-0.127885 0.404679 -1.74435e-21)
(-0.0829579 0.288085 -1.10988e-19)
(-0.0272077 0.118198 1.02954e-19)
(0.0237247 0.111606 8.76168e-20)
(0.0736864 0.276763 4.0407e-21)
(0.116158 0.393691 -9.16829e-20)
(0.146985 0.467443 0)
(0.163637 0.507753 0)
(0.168069 0.524157 0)
(0.1633 0.525201 0)
(0.152611 0.517481 -4.37705e-20)
(0.138753 0.505573 1.26729e-21)
(0.12373 0.49237 1.37737e-21)
(0.108843 0.479526 4.18887e-20)
(0.094837 0.467869 0)
(0.0820687 0.457725 0)
(0.0706466 0.449134 0)
(0.0605333 0.441988 0)
(0.0516146 0.43612 0)
(0.0437436 0.43135 -1.7206e-20)
(0.0367656 0.427504 1.72419e-20)
(0.030532 0.424433 1.6535e-20)
(0.0249067 0.42201 -1.65574e-20)
(0.0197675 0.420132 8.02989e-21)
(0.0150061 0.418718 -1.59841e-20)
(0.0105259 0.417708 1.18972e-20)
(0.00623982 0.417058 -1.98268e-21)
(0.00206745 0.41674 -1.96438e-21)
(-0.00206745 0.41674 -1.96438e-21)
(-0.00623982 0.417058 -1.98268e-21)
(-0.0105259 0.417708 1.18972e-20)
(-0.0150061 0.418718 -1.59841e-20)
(-0.0197675 0.420132 8.02989e-21)
(-0.0249067 0.42201 -1.65574e-20)
(-0.030532 0.424433 1.6535e-20)
(-0.0367656 0.427504 1.72419e-20)
(-0.0437436 0.43135 -1.7206e-20)
(-0.0516146 0.43612 0)
(-0.0605333 0.441988 0)
(-0.0706466 0.449134 0)
(-0.0820687 0.457725 0)
(-0.094837 0.467869 0)
(-0.108843 0.479526 4.18887e-20)
(-0.12373 0.49237 1.37737e-21)
(-0.138753 0.505573 1.26729e-21)
(-0.152611 0.517481 -4.37705e-20)
(-0.163301 0.525201 0)
(-0.168069 0.524157 0)
(-0.163637 0.507753 0)
(-0.146985 0.467443 0)
(-0.116158 0.393691 -9.16829e-20)
(-0.0736864 0.276763 4.0407e-21)
(-0.0237247 0.111606 8.76168e-20)
(0.0206104 0.105779 1.44506e-19)
(0.065283 0.266142 -1.58804e-19)
(0.105124 0.38282 1.60891e-19)
(0.13563 0.459507 -1.62668e-19)
(0.153867 0.503949 1.22536e-19)
(0.160801 0.524364 -4.1056e-20)
(0.158701 0.52858 4.1149e-20)
(0.150369 0.522979 -4.12599e-20)
(0.138351 0.512232 0)
(0.124626 0.499454 3.94335e-20)
(0.110568 0.486534 -3.96708e-20)
(0.0970225 0.474502 0)
(0.0844497 0.463832 0)
(0.0730423 0.454663 3.59597e-20)
(0.0628274 0.446948 -3.60999e-20)
(0.0537372 0.440555 0)
(0.0456558 0.43532 1.68217e-20)
(0.0384487 0.431075 -1.68599e-20)
(0.0319798 0.427668 0)
(0.0261196 0.424971 0)
(0.0207497 0.422874 7.90349e-21)
(0.0157629 0.421292 -7.91109e-21)
(0.0110623 0.420159 -3.8888e-21)
(0.00655989 0.41943 5.82778e-21)
(0.00217384 0.419072 -1.93758e-21)
(-0.00217384 0.419072 -1.93758e-21)
(-0.00655989 0.41943 5.82778e-21)
(-0.0110623 0.420159 -3.8888e-21)
(-0.0157629 0.421292 -7.91109e-21)
(-0.0207497 0.422874 7.90349e-21)
(-0.0261196 0.424971 0)
(-0.0319798 0.427668 0)
(-0.0384487 0.431075 -1.68599e-20)
(-0.0456558 0.43532 1.68217e-20)
(-0.0537372 0.440555 0)
(-0.0628274 0.446948 -3.60999e-20)
(-0.0730423 0.454663 3.59597e-20)
(-0.0844497 0.463832 0)
(-0.0970225 0.474502 0)
(-0.110568 0.486534 -3.96708e-20)
(-0.124626 0.499454 3.94335e-20)
(-0.138351 0.512232 0)
(-0.150369 0.522979 -4.12599e-20)
(-0.158701 0.52858 4.1149e-20)
(-0.160801 0.524364 -4.1056e-20)
(-0.153867 0.503949 1.22536e-19)
(-0.13563 0.459507 -1.62668e-19)
(-0.105124 0.38282 1.60891e-19)
(-0.065283 0.266142 -1.58804e-19)
(-0.0206104 0.105779 2.11067e-21)
(0.017788 0.100543 -1.18462e-19)
(0.0576049 0.256114 6.36218e-20)
(0.094743 0.372087 3.56165e-20)
(0.124583 0.451086 -7.08817e-20)
(0.143933 0.499197 -1.31567e-21)
(0.152972 0.523425 3.66352e-20)
(0.153296 0.530843 0)
(0.147227 0.527537 0)
(0.137067 0.518183 0)
(0.124727 0.506058 3.72388e-20)
(0.11161 0.493257 -3.74559e-20)
(0.0986431 0.481002 0)
(0.0863728 0.469914 -3.54299e-20)
(0.0750719 0.46024 1.82246e-20)
(0.0648312 0.452003 1.74425e-20)
(0.0556303 0.445113 0)
(0.047387 0.439426 -1.64111e-20)
(0.0399894 0.434787 1.64514e-20)
(0.0333159 0.431046 1.59008e-20)
(0.0272459 0.428072 -8.07912e-21)
(0.0216659 0.425753 -9.45972e-23)
(0.0164711 0.424 -7.36031e-23)
(0.0115654 0.422743 -1.15324e-20)
(0.00686058 0.421932 3.82917e-21)
(0.00227386 0.421535 0)
(-0.00227386 0.421535 0)
(-0.00686058 0.421932 3.82917e-21)
(-0.0115654 0.422743 -1.15324e-20)
(-0.0164711 0.424 -7.36031e-23)
(-0.0216659 0.425753 -9.45972e-23)
(-0.0272459 0.428072 -8.07912e-21)
(-0.0333159 0.431046 1.59008e-20)
(-0.0399894 0.434787 1.64514e-20)
(-0.047387 0.439426 -1.64111e-20)
(-0.0556303 0.445113 0)
(-0.0648312 0.452003 1.74425e-20)
(-0.0750719 0.46024 1.82246e-20)
(-0.0863728 0.469914 -3.54299e-20)
(-0.0986431 0.481002 0)
(-0.11161 0.493257 -3.74559e-20)
(-0.124727 0.506058 3.72388e-20)
(-0.137067 0.518183 0)
(-0.147227 0.527537 0)
(-0.153296 0.530843 0)
(-0.152972 0.523425 3.66352e-20)
(-0.143933 0.499197 -1.31567e-21)
(-0.124583 0.451086 -7.08817e-20)
(-0.094743 0.372087 3.56165e-20)
(-0.0576049 0.256114 6.36218e-20)
(-0.017788 0.100543 -2.53691e-21)
(0.0152022 0.0957608 0)
(0.050541 0.246581 0)
(0.0849719 0.361494 0)
(0.113894 0.442271 0)
(0.133966 0.493618 0)
(0.144747 0.521436 -3.38066e-20)
(0.147244 0.532043 3.36745e-20)
(0.143318 0.53116 0)
(0.135002 0.523398 0)
(0.1241 0.512136 0)
(0.112013 0.499644 0)
(0.099724 0.487317 0)
(0.087852 0.475926 0)
(0.0767423 0.465827 0)
(0.0665472 0.457121 0)
(0.0572943 0.449766 0)
(0.0489365 0.443648 0)
(0.0413865 0.438625 0)
(0.0345391 0.434554 0)
(0.0282844 0.431304 0)
(0.0225151 0.428762 0)
(0.01713 0.426836 0)
(0.0120347 0.425452 0)
(0.00714153 0.424558 0)
(0.00236739 0.42412 0)
(-0.00236739 0.42412 0)
(-0.00714153 0.424558 0)
(-0.0120347 0.425452 0)
(-0.01713 0.426836 0)
(-0.0225151 0.428762 0)
(-0.0282844 0.431304 0)
(-0.0345391 0.434554 0)
(-0.0413865 0.438625 0)
(-0.0489365 0.443648 0)
(-0.0572943 0.449766 0)
(-0.0665472 0.457121 0)
(-0.0767423 0.465827 0)
(-0.087852 0.475926 0)
(-0.099724 0.487317 0)
(-0.112013 0.499644 0)
(-0.1241 0.512136 0)
(-0.135002 0.523398 0)
(-0.143318 0.53116 0)
(-0.147244 0.532043 3.36745e-20)
(-0.144747 0.521436 -3.38066e-20)
(-0.133966 0.493618 0)
(-0.113894 0.442271 0)
(-0.0849719 0.361494 0)
(-0.050541 0.246581 0)
(-0.0152022 0.0957608 0)
(0.0128143 0.0913285 0)
(0.0440069 0.237453 0)
(0.0757688 0.351025 2.57633e-20)
(0.103592 0.433124 -2.49853e-20)
(0.124062 0.48731 0)
(0.136261 0.518487 0)
(0.140684 0.532233 0)
(0.138763 0.533862 0)
(0.13225 0.527859 -3.26774e-20)
(0.122812 0.517652 3.28209e-20)
(0.111823 0.505649 0)
(0.100293 0.493401 0)
(0.0889037 0.481824 0)
(0.0780625 0.471386 1.60985e-20)
(0.06798 0.462271 -1.6169e-20)
(0.0587311 0.45449 0)
(0.0503048 0.447964 -1.55185e-20)
(0.0426397 0.442571 1.55621e-20)
(0.0356489 0.438177 0)
(0.0292344 0.434655 0)
(0.0232966 0.43189 0)
(0.0177391 0.42979 0)
(0.0124699 0.428278 -3.68389e-21)
(0.00740251 0.427301 1.84985e-21)
(0.00245435 0.426821 1.83856e-21)
(-0.00245435 0.426821 1.83856e-21)
(-0.00740251 0.427301 1.84985e-21)
(-0.0124699 0.428278 -3.68389e-21)
(-0.0177391 0.42979 0)
(-0.0232966 0.43189 0)
(-0.0292344 0.434655 0)
(-0.0356489 0.438177 0)
(-0.0426397 0.442571 1.55621e-20)
(-0.0503048 0.447964 -1.55185e-20)
(-0.0587311 0.45449 0)
(-0.06798 0.462271 -1.6169e-20)
(-0.0780625 0.471386 1.60985e-20)
(-0.0889037 0.481824 0)
(-0.100293 0.493401 0)
(-0.111823 0.505649 0)
(-0.122812 0.517652 3.28209e-20)
(-0.13225 0.527859 -3.26774e-20)
(-0.138763 0.533862 0)
(-0.140684 0.532233 0)
(-0.136261 0.518487 0)
(-0.124062 0.48731 0)
(-0.103592 0.433124 -2.49853e-20)
(-0.0757688 0.351025 2.57633e-20)
(-0.0440069 0.237453 0)
(-0.0128143 0.0913285 0)
(0.0105981 0.0871653 0)
(0.0379397 0.228655 1.90715e-20)
(0.0670974 0.340661 -3.97395e-20)
(0.093694 0.423693 4.43003e-20)
(0.114298 0.480355 -4.84151e-20)
(0.127626 0.514657 5.21538e-20)
(0.133739 0.531466 -2.69014e-20)
(0.133674 0.535665 0)
(0.1289 0.531559 0)
(0.120931 0.522579 -1.53967e-20)
(0.111084 0.511233 1.54721e-20)
(0.100381 0.499215 0)
(0.0895469 0.487571 0)
(0.079044 0.476884 -1.54402e-20)
(0.0691362 0.467423 1.88071e-22)
(0.0599444 0.45926 1.53825e-20)
(0.0514936 0.452355 0)
(0.0437499 0.446609 0)
(0.0366455 0.441902 0)
(0.0300959 0.438111 -7.32373e-21)
(0.0240104 0.435126 7.33685e-21)
(0.0182982 0.432852 0)
(0.0128708 0.431213 0)
(0.00764345 0.430151 0)
(0.00253472 0.42963 0)
(-0.00253472 0.42963 0)
(-0.00764345 0.430151 0)
(-0.0128708 0.431213 0)
(-0.0182982 0.432852 0)
(-0.0240104 0.435126 7.33685e-21)
(-0.0300959 0.438111 -7.32373e-21)
(-0.0366455 0.441902 0)
(-0.0437499 0.446609 0)
(-0.0514936 0.452355 0)
(-0.0599444 0.45926 1.53825e-20)
(-0.0691362 0.467423 1.88071e-22)
(-0.079044 0.476884 -1.54402e-20)
(-0.0895469 0.487571 0)
(-0.100381 0.499215 0)
(-0.111084 0.511233 1.54721e-20)
(-0.120931 0.522579 -1.53967e-20)
(-0.1289 0.531559 0)
(-0.133674 0.535665 0)
(-0.133739 0.531466 -2.69014e-20)
(-0.127626 0.514657 5.21538e-20)
(-0.114298 0.480355 -4.84151e-20)
(-0.093694 0.423693 4.43003e-20)
(-0.0670974 0.340661 -3.97395e-20)
(-0.0379397 0.228655 1.90715e-20)
(-0.0105981 0.0871653 0)
(0.00853643 0.0832096 0)
(0.0322938 0.220122 -1.4803e-20)
(0.0589282 0.330378 1.41995e-20)
(0.0842113 0.414012 0)
(0.104732 0.47282 1.10347e-20)
(0.118934 0.510016 -1.08794e-20)
(0.126514 0.529795 0)
(0.128149 0.536591 0)
(0.125036 0.534494 0)
(0.11852 0.526894 -1.43608e-20)
(0.109843 0.516366 2.90223e-20)
(0.10002 0.50472 -1.46712e-20)
(0.0898026 0.493129 0)
(0.0796999 0.482286 -1.47715e-20)
(0.0700239 0.472548 7.47961e-21)
(0.0609389 0.464051 7.38986e-21)
(0.052506 0.456799 7.27184e-21)
(0.0447187 0.45072 -7.29466e-21)
(0.0375299 0.445712 0)
(0.0308695 0.441661 -3.56333e-21)
(0.0246568 0.43846 3.57023e-21)
(0.0188075 0.436014 3.52856e-21)
(0.0132374 0.434247 -3.53332e-21)
(0.0078644 0.433101 -8.78117e-22)
(0.00260851 0.432538 8.78896e-22)
(-0.00260851 0.432538 8.78896e-22)
(-0.0078644 0.433101 -8.78117e-22)