/*--------------------------------*- C++ -*----------------------------------*\
  =========                 |
  \\      /  F ield         | OpenFOAM: The Open Source CFD Toolbox
   \\    /   O peration     | Website:  https://openfoam.org
    \\  /    A nd           | Version:  6
     \\/     M anipulation  |
\*---------------------------------------------------------------------------*/
FoamFile
{
    version     2.0;
    format      ascii;
    class       volScalarField;
    location    "3200";
    object      p;
}
// * * * * * * * * * * * * * * * * * * * * * * * * * * * * * * * * * * * * * //

dimensions      [0 2 -2 0 0 0 0];

internalField   nonuniform List<scalar> 
2500
(
0.513029
0.221114
0.146436
0.113281
0.0930318
0.080183
0.0711442
0.0643422
0.0589861
0.0546308
0.0510084
0.0479476
0.0453334
0.0430855
0.0411459
0.0394716
0.0380301
0.0367964
0.035751
0.0348788
0.0341679
0.0336091
0.0331957
0.0329227
0.032787
0.032787
0.0329227
0.0331957
0.0336091
0.0341679
0.0348788
0.035751
0.0367964
0.0380301
0.0394716
0.0411459
0.0430855
0.0453334
0.0479476
0.0510084
0.0546308
0.0589861
0.0643422
0.0711442
0.080183
0.0930318
0.113281
0.146436
0.221114
0.513029
0.371023
0.207906
0.149701
0.116604
0.0956233
0.0820341
0.0724549
0.0652884
0.0596862
0.0551613
0.0514191
0.0482716
0.045593
0.0432964
0.0413192
0.0396156
0.0381509
0.0368987
0.0358386
0.0349547
0.0342347
0.033669
0.0332506
0.0329744
0.0328371
0.0328371
0.0329744
0.0332506
0.033669
0.0342347
0.0349547
0.0358386
0.0368987
0.0381509
0.0396156
0.0413192
0.0432964
0.045593
0.0482716
0.0514191
0.0551613
0.0596862
0.0652884
0.0724549
0.0820341
0.0956233
0.116604
0.149701
0.207906
0.371023
0.257723
0.183096
0.145623
0.116538
0.0966263
0.0830799
0.0733125
0.0659548
0.0601989
0.0555578
0.0517287
0.0485158
0.0457877
0.0434528
0.0414458
0.0397187
0.0382353
0.0369681
0.0358961
0.0350027
0.0342752
0.0337039
0.0332814
0.0330025
0.0328639
0.0328639
0.0330025
0.0332814
0.0337039
0.0342752
0.0350027
0.0358961
0.0369681
0.0382353
0.0397187
0.0414458
0.0434528
0.0457877
0.0485158
0.0517287
0.0555578
0.0601989
0.0659548
0.0733125
0.0830799
0.0966263
0.116538
0.145623
0.183096
0.257723
0.188298
0.157447
0.135492
0.112613
0.0953891
0.0828062
0.0733607
0.0660957
0.0603505
0.055693
0.0518409
0.0486056
0.0458576
0.0435059
0.0414849
0.0397462
0.0382532
0.0369782
0.0358997
0.0350011
0.0342695
0.033695
0.0332702
0.0329898
0.0328505
0.0328505
0.0329898
0.0332702
0.033695
0.0342695
0.0350011
0.0358997
0.0369782
0.0382532
0.0397462
0.0414849
0.0435059
0.0458576
0.0486056
0.0518409
0.055693
0.0603505
0.0660957
0.0733607
0.0828062
0.0953891
0.112613
0.135492
0.157447
0.188298
0.142843
0.134712
0.123397
0.106655
0.0926209
0.0815055
0.072737
0.0657869
0.0601892
0.0556015
0.0517822
0.0485618
0.0458198
0.0434698
0.0414483
0.0397081
0.0382133
0.0369363
0.035856
0.0349558
0.0342228
0.0336472
0.0332216
0.0329406
0.032801
0.032801
0.0329406
0.0332216
0.0336472
0.0342228
0.0349558
0.035856
0.0369363
0.0382133
0.0397081
0.0414483
0.0434698
0.0458198
0.0485618
0.0517822
0.0556015
0.0601892
0.0657869
0.072737
0.0815055
0.0926209
0.106655
0.123397
0.134712
0.142843
0.111041
0.11532
0.11134
0.0998755
0.0889274
0.0794633
0.0715755
0.065095
0.0597516
0.0553055
0.0515676
0.0483953
0.0456828
0.0433513
0.0413418
0.0396094
0.0381198
0.0368464
0.0357685
0.0348699
0.034138
0.0335631
0.0331379
0.0328573
0.0327177
0.0327177
0.0328573
0.0331379
0.0335631
0.034138
0.0348699
0.0357685
0.0368464
0.0381198
0.0396094
0.0413418
0.0433513
0.0456828
0.0483953
0.0515676
0.0553055
0.0597516
0.065095
0.0715755
0.0794633
0.0889274
0.0998755
0.11134
0.11532
0.111041
0.0887871
0.0992489
0.10008
0.0928723
0.0846871
0.0768819
0.0699741
0.0640653
0.0590582
0.0548139
0.0512005
0.0481074
0.0454468
0.0431503
0.0411649
0.0394496
0.0379723
0.0367079
0.0356367
0.034743
0.0340148
0.0334426
0.0330192
0.0327397
0.0326008
0.0326008
0.0327397
0.0330192
0.0334426
0.0340148
0.034743
0.0356367
0.0367079
0.0379723
0.0394496
0.0411649
0.0431503
0.0454468
0.0481074
0.0512005
0.0548139
0.0590582
0.0640653
0.0699741
0.0768819
0.0846871
0.0928723
0.10008
0.0992489
0.0887871
0.0733458
0.0862525
0.0899803
0.0860218
0.0801859
0.0739386
0.0680309
0.0627494
0.0581351
0.05414
0.0506877
0.0477013
0.0451132
0.0428671
0.0409177
0.0392286
0.0377706
0.0365207
0.0354604
0.0345751
0.0338531
0.0332854
0.0328653
0.0325878
0.0324499
0.0324499
0.0325878
0.0328653
0.0332854
0.0338531
0.0345751
0.0354604
0.0365207
0.0377706
0.0392286
0.0409177
0.0428671
0.0451132
0.0477013
0.0506877
0.05414
0.0581351
0.0627494
0.0680309
0.0739386
0.0801859
0.0860218
0.0899803
0.0862525
0.0733458
0.0625831
0.0758835
0.0811753
0.0795759
0.0756494
0.0707912
0.0658443
0.0612051
0.0570159
0.0533029
0.0500402
0.0471835
0.0446858
0.0425043
0.0406017
0.0389473
0.0375154
0.0362852
0.03524
0.0343662
0.0336529
0.0330917
0.0326762
0.0324016
0.0322651
0.0322651
0.0324016
0.0326762
0.0330917
0.0336529
0.0343662
0.03524
0.0362852
0.0375154
0.0389473
0.0406017
0.0425043
0.0446858
0.0471835
0.0500402
0.0533029
0.0570159
0.0612051
0.0658443
0.0707912
0.0756494
0.0795759
0.0811753
0.0758835
0.0625831
0.0549882
0.0676487
0.0736343
0.0736704
0.0712368
0.0675678
0.063503
0.0594897
0.0557359
0.0523243
0.0492712
0.046562
0.0441699
0.042065
0.0402192
0.0386072
0.0372076
0.0360022
0.034976
0.0341169
0.0334147
0.0328618
0.0324522
0.0321814
0.0320467
0.0320467
0.0321814
0.0324522
0.0328618
0.0334147
0.0341169
0.034976
0.0360022
0.0372076
0.0386072
0.0402192
0.042065
0.0441699
0.046562
0.0492712
0.0523243
0.0557359
0.0594897
0.063503
0.0675678
0.0712368
0.0736704
0.0736343
0.0676487
0.0549882
0.0495436
0.0611041
0.0672388
0.0683538
0.0670485
0.0643641
0.0610811
0.0576548
0.0543293
0.0512262
0.048395
0.0458463
0.0435714
0.0415534
0.0397727
0.0382102
0.0368485
0.0356725
0.0346691
0.0338276
0.0331389
0.0325961
0.0321936
0.0319274
0.031795
0.031795
0.0319274
0.0321936
0.0325961
0.0331389
0.0338276
0.0346691
0.0356725
0.0368485
0.0382102
0.0397727
0.0415534
0.0435714
0.0458463
0.048395
0.0512262
0.0543293
0.0576548
0.0610811
0.0643641
0.0670485
0.0683538
0.0672388
0.0611041
0.0495436
0.0455664
0.0558794
0.0618381
0.0636202
0.0631398
0.0612478
0.0586379
0.0557455
0.0528281
0.0500304
0.047426
0.0450458
0.0428969
0.0409738
0.0392653
0.0377584
0.0364398
0.0352974
0.0343202
0.033499
0.0328261
0.032295
0.0319009
0.0316401
0.0315103
0.0315103
0.0316401
0.0319009
0.032295
0.0328261
0.033499
0.0343202
0.0352974
0.0364398
0.0377584
0.0392653
0.0409738
0.0428969
0.0450458
0.047426
0.0500304
0.0528281
0.0557455
0.0586379
0.0612478
0.0631398
0.0636202
0.0618381
0.0558794
0.0455664
0.0425951
0.0516761
0.057279
0.0594329
0.0595339
0.0582628
0.0562182
0.0537994
0.0512606
0.0487575
0.0463788
0.0441707
0.0421532
0.040331
0.0387005
0.0372543
0.0359832
0.0348781
0.0339302
0.033132
0.0324767
0.031959
0.0315744
0.0313197
0.0311929
0.0311929
0.0313197
0.0315744
0.031959
0.0324767
0.033132
0.0339302
0.0348781
0.0359832
0.0372543
0.0387005
0.040331
0.0421532
0.0441707
0.0463788
0.0487575
0.0512606
0.0537994
0.0562182
0.0582628
0.0595339
0.0594329
0.057279
0.0516761
0.0425951
0.040318
0.048259
0.0534192
0.0557392
0.056232
0.0554349
0.0538544
0.0518466
0.0496515
0.0474259
0.0452668
0.0432307
0.0413475
0.0396301
0.0380819
0.0367004
0.0354806
0.034416
0.0335003
0.0327274
0.0320917
0.0315887
0.0312147
0.0309669
0.0308434
0.0308434
0.0309669
0.0312147
0.0315887
0.0320917
0.0327274
0.0335003
0.034416
0.0354806
0.0367004
0.0380819
0.0396301
0.0413475
0.0432307
0.0452668
0.0474259
0.0496515
0.0518466
0.0538544
0.0554349
0.056232
0.0557392
0.0534192
0.048259
0.040318
0.0385237
0.0454457
0.0501333
0.0524806
0.0532209
0.0527756
0.0515682
0.0499101
0.0480211
0.0460522
0.0441028
0.0422353
0.0404865
0.0388761
0.0374131
0.0360996
0.0349341
0.0339129
0.0330317
0.0322861
0.0316716
0.0311847
0.0308223
0.030582
0.0304622
0.0304622
0.030582
0.0308223
0.0311847
0.0316716
0.0322861
0.0330317
0.0339129
0.0349341
0.0360996
0.0374131
0.0388761
0.0404865
0.0422353
0.0441028
0.0460522
0.0480211
0.0499101
0.0515682
0.0527756
0.0532209
0.0524806
0.0501333
0.0454457
0.0385237
0.037068
0.0430961
0.0473147
0.0495983
0.0504789
0.0502862
0.0493726
0.0480067
0.0463858
0.0446505
0.042898
0.0411931
0.039577
0.0380742
0.036698
0.0354547
0.0343458
0.0333703
0.0325258
0.0318092
0.0312175
0.0307479
0.0303979
0.0301656
0.0300498
0.0300498
0.0301656
0.0303979
0.0307479
0.0312175
0.0318092
0.0325258
0.0333703
0.0343458
0.0354547
0.036698
0.0380742
0.039577
0.0411931
0.042898
0.0446505
0.0463858
0.0480067
0.0493726
0.0502862
0.0504789
0.0495983
0.0473147
0.0430961
0.037068
0.0358519
0.0411027
0.0448742
0.0470374
0.04798
0.0479611
0.0472736
0.046148
0.0447584
0.0432326
0.0416625
0.0401123
0.0386252
0.037229
0.0359404
0.0347687
0.0337181
0.0327901
0.0319838
0.0312979
0.0307302
0.0302789
0.0299422
0.0297185
0.0296069
0.0296069
0.0297185
0.0299422
0.0302789
0.0307302
0.0312979
0.0319838
0.0327901
0.0337181
0.0347687
0.0359404
0.037229
0.0386252
0.0401123
0.0416625
0.0432326
0.0447584
0.046148
0.0472736
0.0479611
0.04798
0.0470374
0.0448742
0.0411027
0.0358519
0.0348062
0.0393832
0.0427383
0.0447478
0.0456965
0.0457898
0.0452721
0.0443409
0.0431481
0.0418078
0.0404046
0.0389999
0.037637
0.0363452
0.0351438
0.0340442
0.0330532
0.0321739
0.0314073
0.0307532
0.0302108
0.0297787
0.0294559
0.0292412
0.0291341
0.0291341
0.0292412
0.0294559
0.0297787
0.0302108
0.0307532
0.0314073
0.0321739
0.0330532
0.0340442
0.0351438
0.0363452
0.037637
0.0389999
0.0404046
0.0418078
0.0431481
0.0443409
0.0452721
0.0457898
0.0456965
0.0447478
0.0427383
0.0393832
0.0348062
0.0338821
0.0378744
0.0408469
0.0426853
0.0436012
0.0437593
0.0433654
0.0425887
0.0415613
0.0403835
0.0391315
0.0378622
0.0366176
0.0354273
0.0343117
0.0332843
0.0323533
0.0315237
0.0307977
0.0301766
0.0296601
0.0292481
0.0289397
0.0287346
0.0286321
0.0286321
0.0287346
0.0289397
0.0292481
0.0296601
0.0301766
0.0307977
0.0315237
0.0323533
0.0332843
0.0343117
0.0354273
0.0366176
0.0378622
0.0391315
0.0403835
0.0415613
0.0425887
0.0433654
0.0437593
0.0436012
0.0426853
0.0408469
0.0378744
0.0338821
0.0330442
0.0365272
0.0391509
0.0408113
0.0416679
0.0418552
0.0415479
0.040892
0.040002
0.0389652
0.0378489
0.0367047
0.0355718
0.0344791
0.0334475
0.0324915
0.0316207
0.0308412
0.0301566
0.0295691
0.0290794
0.0286879
0.0283946
0.0281992
0.0281016
0.0281016
0.0281992
0.0283946
0.0286879
0.0290794
0.0295691
0.0301566
0.0308412
0.0316207
0.0324915
0.0334475
0.0344791
0.0355718
0.0367047
0.0378489
0.0389652
0.040002
0.040892
0.0415479
0.0418552
0.0416679
0.0408113
0.0391509
0.0365272
0.0330442
0.0322666
0.0353036
0.0376102
0.0390925
0.0398728
0.0400627
0.0398126
0.0392493
0.0384722
0.0375568
0.0365615
0.0355319
0.0345037
0.0335043
0.0325543
0.0316685
0.0308575
0.0301282
0.0294855
0.028932
0.0284697
0.0280993
0.0278214
0.0276361
0.0275434
0.0275434
0.0276361
0.0278214
0.0280993
0.0284697
0.028932
0.0294855
0.0301282
0.0308575
0.0316685
0.0325543
0.0335043
0.0345037
0.0355319
0.0365615
0.0375568
0.0384722
0.0392493
0.0398126
0.0400627
0.0398728
0.0390925
0.0376102
0.0353036
0.0322666
0.0315297
0.0341736
0.0361921
0.0375005
0.0381939
0.0383672
0.0381512
0.0376574
0.0369722
0.0361606
0.0352725
0.0343474
0.0334169
0.0325062
0.0316349
0.0308178
0.0300658
0.0293866
0.0287858
0.0282668
0.0278321
0.0274832
0.027221
0.0270459
0.0269583
0.0269583
0.0270459
0.027221
0.0274832
0.0278321
0.0282668
0.0287858
0.0293866
0.0300658
0.0308178
0.0316349
0.0325062
0.0334169
0.0343474
0.0352725
0.0361606
0.0369722
0.0376574
0.0381512
0.0383672
0.0381939
0.0375005
0.0361921
0.0341736
0.0315297
0.0308186
0.0331133
0.0348698
0.0360107
0.0366116
0.0367547
0.0365553
0.0361123
0.0355013
0.034778
0.0339845
0.0331543
0.0323145
0.0314877
0.030692
0.0299416
0.0292476
0.0286181
0.028059
0.0275746
0.0271678
0.0268406
0.0265942
0.0264296
0.0263471
0.0263471
0.0264296
0.0265942
0.0268406
0.0271678
0.0275746
0.028059
0.0286181
0.0292476
0.0299416
0.030692
0.0314877
0.0323145
0.0331543
0.0339845
0.034778
0.0355013
0.0361123
0.0365553
0.0367547
0.0366116
0.0360107
0.0348698
0.0331133
0.0308186
0.0301213
0.0321035
0.0336212
0.0346025
0.0351086
0.0352121
0.0350162
0.0346092
0.0340576
0.0334093
0.0326992
0.0319549
0.0311991
0.0304514
0.029728
0.0290423
0.028405
0.0278244
0.0273068
0.0268568
0.0264779
0.0261725
0.0259421
0.025788
0.0257108
0.0257108
0.025788
0.0259421
0.0261725
0.0264779
0.0268568
0.0273068
0.0278244
0.028405
0.0290423
0.029728
0.0304514
0.0311991
0.0319549
0.0326992
0.0334093
0.0340576
0.0346092
0.0350162
0.0352121
0.0351086
0.0346025
0.0336212
0.0321035
0.0301213
0.0294282
0.0311287
0.0324279
0.0332579
0.0336693
0.0337275
0.0335255
0.0331428
0.0326388
0.0320542
0.0314176
0.030751
0.0300729
0.0293995
0.0287451
0.0281217
0.0275396
0.027007
0.0265304
0.0261147
0.0257636
0.0254799
0.0252657
0.0251221
0.0250501
0.0250501
0.0251221
0.0252657
0.0254799
0.0257636
0.0261147
0.0265304
0.027007
0.0275396
0.0281217
0.0287451
0.0293995
0.0300729
0.030751
0.0314176
0.0320542
0.0326388
0.0331428
0.0335255
0.0337275
0.0336693
0.0332579
0.0324279
0.0311287
0.0294282
0.0287314
0.030176
0.0312744
0.0319618
0.0322803
0.0322898
0.0320749
0.0317081
0.0312421
0.0307118
0.0301401
0.0295439
0.0289376
0.028334
0.0277452
0.0271818
0.0266533
0.0261677
0.0257314
0.0253495
0.025026
0.024764
0.0245658
0.0244328
0.024366
0.024366
0.0244328
0.0245658
0.024764
0.025026
0.0253495
0.0257314
0.0261677
0.0266533
0.0271818
0.0277452
0.028334
0.0289376
0.0295439
0.0301401
0.0307118
0.0312421
0.0317081
0.0320749
0.0322898
0.0322803
0.0319618
0.0312744
0.030176
0.0287314
0.0280243
0.0292347
0.030148
0.030701
0.0309296
0.0308891
0.0306571
0.0302998
0.0298645
0.0293807
0.0288667
0.0283346
0.0277947
0.0272567
0.0267301
0.0262243
0.0257478
0.0253079
0.0249111
0.0245625
0.0242663
0.0240258
0.0238435
0.023721
0.0236595
0.0236595
0.023721
0.0238435
0.0240258
0.0242663
0.0245625
0.0249111
0.0253079
0.0257478
0.0262243
0.0267301
0.0272567
0.0277947
0.0283346
0.0288667
0.0293807
0.0298645
0.0302998
0.0306571
0.0308891
0.0309296
0.030701
0.030148
0.0292347
0.0280243
0.0273011
0.0282956
0.0290376
0.0294643
0.0296066
0.0295163
0.0292648
0.0289128
0.0285027
0.0280596
0.0275973
0.0271237
0.0266453
0.0261689
0.0257015
0.0252509
0.0248245
0.0244291
0.0240708
0.0237549
0.0234857
0.0232664
0.0230998
0.0229877
0.0229314
0.0229314
0.0229877
0.0230998
0.0232664
0.0234857
0.0237549
0.0240708
0.0244291
0.0248245
0.0252509
0.0257015
0.0261689
0.0266453
0.0271237
0.0275973
0.0280596
0.0285027
0.0289128
0.0292648
0.0295163
0.0296066
0.0294643
0.0290376
0.0282956
0.0273011
0.0265568
0.0273511
0.0279338
0.0282419
0.0283022
0.0281635
0.0278917
0.0275425
0.0271538
0.0267468
0.0263312
0.0259114
0.0254904
0.0250719
0.0246608
0.024263
0.0238849
0.0235326
0.023212
0.0229281
0.0226852
0.0224868
0.0223357
0.0222339
0.0221826
0.0221826
0.0222339
0.0223357
0.0224868
0.0226852
0.0229281
0.023212
0.0235326
0.0238849
0.024263
0.0246608
0.0250719
0.0254904
0.0259114
0.0263312
0.0267468
0.0271538
0.0275425
0.0278917
0.0281635
0.0283022
0.0282419
0.0279338
0.0273511
0.0265568
0.025787
0.0263944
0.0268285
0.0270252
0.0270083
0.0268236
0.026532
0.0261845
0.0258149
0.0254406
0.025068
0.0246982
0.0243308
0.023967
0.0236093
0.0232621
0.0229305
0.0226199
0.0223358
0.0220831
0.021866
0.021688
0.0215522
0.0214604
0.0214142
0.0214142
0.0214604
0.0215522
0.021688
0.021866
0.0220831
0.0223358
0.0226199
0.0229305
0.0232621
0.0236093
0.023967
0.0243308
0.0246982
0.025068
0.0254406
0.0258149
0.0261845
0.026532
0.0268236
0.0270083
0.0270252
0.0268285
0.0263944
0.025787
0.0249877
0.0254196
0.0257145
0.0258069
0.0257177
0.0254903
0.0251805
0.0248348
0.0244831
0.0241394
0.023807
0.0234839
0.0231671
0.022855
0.0225482
0.0222494
0.0219625
0.0216922
0.0214436
0.0212211
0.0210291
0.0208712
0.0207502
0.0206683
0.020627
0.020627
0.0206683
0.0207502
0.0208712
0.0210291
0.0212211
0.0214436
0.0216922
0.0219625
0.0222494
0.0225482
0.022855
0.0231671
0.0234839
0.023807
0.0241394
0.0244831
0.0248348
0.0251805
0.0254903
0.0257177
0.0258069
0.0257145
0.0254196
0.0249877
0.0241553
0.0244214
0.0245857
0.0245804
0.0244243
0.0241579
0.0238325
0.0234898
0.0231559
0.0228417
0.0225475
0.0222687
0.0219998
0.0217369
0.0214786
0.0212261
0.0209822
0.0207508
0.0205364
0.0203433
0.0201758
0.0200372
0.0199307
0.0198585
0.019822
0.019822
0.0198585
0.0199307
0.0200372
0.0201758
0.0203433
0.0205364
0.0207508
0.0209822
0.0212261
0.0214786
0.0217369
0.0219998
0.0222687
0.0225475
0.0228417
0.0231559
0.0234898
0.0238325
0.0241579
0.0244243
0.0245804
0.0245857
0.0244214
0.0241553
0.0232864
0.0233952
0.0234364
0.02334
0.0231225
0.0228218
0.0224841
0.0221465
0.0218313
0.0215462
0.021289
0.0210526
0.0208295
0.0206135
0.0204016
0.0201935
0.0199909
0.0197969
0.0196155
0.0194508
0.0193069
0.0191872
0.0190948
0.0190319
0.0190001
0.0190001
0.0190319
0.0190948
0.0191872
0.0193069
0.0194508
0.0196155
0.0197969
0.0199909
0.0201935
0.0204016
0.0206135
0.0208295
0.0210526
0.021289
0.0215462
0.0218313
0.0221465
0.0224841
0.0228218
0.0231225
0.02334
0.0234364
0.0233952
0.0232864
0.0223779
0.0223365
0.0222615
0.0220806
0.0218077
0.0214778
0.0211319
0.0208023
0.0205073
0.0202517
0.0200309
0.0198358
0.0196566
0.0194856
0.0193182
0.0191526
0.0189896
0.0188315
0.018682
0.0185447
0.0184236
0.0183221
0.0182433
0.0181895
0.0181621
0.0181621
0.0181895
0.0182433
0.0183221
0.0184236
0.0185447
0.018682
0.0188315
0.0189896
0.0191526
0.0193182
0.0194856
0.0196566
0.0198358
0.0200309
0.0202517
0.0205073
0.0208023
0.0211319
0.0214778
0.0218077
0.0220806
0.0222615
0.0223365
0.0223779
0.0214268
0.0212413
0.0210566
0.0207977
0.0204758
0.0201224
0.0197731
0.019455
0.0191826
0.0189575
0.0187731
0.0186182
0.0184816
0.018354
0.0182293
0.0181045
0.0179794
0.0178559
0.0177369
0.017626
0.0175268
0.0174429
0.0173772
0.0173321
0.0173091
0.0173091
0.0173321
0.0173772
0.0174429
0.0175268
0.017626
0.0177369
0.0178559
0.0179794
0.0181045
0.0182293
0.018354
0.0184816
0.0186182
0.0187731
0.0189575
0.0191826
0.019455
0.0197731
0.0201224
0.0204758
0.0207977
0.0210566
0.0212413
0.0214268
0.02043
0.0201056
0.0198172
0.0194871
0.0191232
0.0187528
0.0184055
0.0181031
0.0178559
0.0176629
0.0175152
0.0174003
0.0173052
0.0172195
0.0171358
0.0170501
0.0169615
0.0168711
0.0167814
0.0166957
0.0166176
0.0165505
0.0164974
0.0164606
0.0164417
0.0164417
0.0164606
0.0164974
0.0165505
0.0166176
0.0166957
0.0167814
0.0168711
0.0169615
0.0170501
0.0171358
0.0172195
0.0173052
0.0174003
0.0175152
0.0176629
0.0178559
0.0181031
0.0184055
0.0187528
0.0191232
0.0194871
0.0198172
0.0201056
0.02043
0.0193845
0.0189256
0.0185394
0.0181455
0.0177472
0.0173668
0.0170275
0.0167454
0.0165267
0.0163676
0.0162575
0.0161822
0.0161279
0.0160828
0.0160387
0.0159906
0.0159369
0.0158782
0.0158164
0.0157549
0.0156969
0.0156458
0.0156047
0.0155758
0.015561
0.015561
0.0155758
0.0156047
0.0156458
0.0156969
0.0157549
0.0158164
0.0158782
0.0159369
0.0159906
0.0160387
0.0160828
0.0161279
0.0161822
0.0162575
0.0163676
0.0165267
0.0167454
0.0170275
0.0173668
0.0177472
0.0181455
0.0185394
0.0189256
0.0193845
0.0182871
0.0176972
0.0172193
0.0167697
0.0163455
0.015963
0.0156381
0.0153814
0.0151947
0.0150717
0.015
0.0149645
0.0149503
0.0149448
0.0149389
0.014927
0.0149067
0.0148781
0.014843
0.0148044
0.0147655
0.0147297
0.0146999
0.0146787
0.0146676
0.0146676
0.0146787
0.0146999
0.0147297
0.0147655
0.0148044
0.014843
0.0148781
0.0149067
0.014927
0.0149389
0.0149448
0.0149503
0.0149645
0.015
0.0150717
0.0151947
0.0153814
0.0156381
0.015963
0.0163455
0.0167697
0.0172193
0.0176972
0.0182871
0.0171339
0.0164161
0.0158531
0.0153569
0.0149166
0.0145405
0.0142371
0.014011
0.01386
0.0137754
0.0137434
0.0137478
0.0137732
0.0138063
0.0138373
0.0138601
0.0138717
0.0138718
0.0138621
0.0138452
0.0138244
0.013803
0.013784
0.0137698
0.0137623
0.0137623
0.0137698
0.013784
0.013803
0.0138244
0.0138452
0.0138621
0.0138718
0.0138717
0.0138601
0.0138373
0.0138063
0.0137732
0.0137478
0.0137434
0.0137754
0.01386
0.014011
0.0142371
0.0145405
0.0149166
0.0153569
0.0158531
0.0164161
0.0171339
0.0159204
0.0150777
0.014437
0.0139052
0.0134594
0.0130992
0.0128248
0.0126348
0.0125233
0.0124794
0.0124882
0.0125329
0.0125974
0.0126682
0.0127349
0.012791
0.012833
0.0128605
0.0128747
0.0128783
0.0128744
0.0128665
0.0128576
0.0128501
0.0128459
0.0128459
0.0128501
0.0128576
0.0128665
0.0128744
0.0128783
0.0128747
0.0128605
0.012833
0.012791
0.0127349
0.0126682
0.0125974
0.0125329
0.0124882
0.0124794
0.0125233
0.0126348
0.0128248
0.0130992
0.0134594
0.0139052
0.014437
0.0150777
0.0159204
0.0146406
0.0136765
0.0129673
0.0124129
0.011974
0.0116399
0.0114021
0.0112537
0.0111854
0.0111845
0.0112353
0.0113205
0.0114239
0.0115315
0.0116328
0.0117207
0.0117916
0.0118449
0.0118816
0.0119044
0.0119164
0.0119211
0.0119215
0.0119202
0.0119191
0.0119191
0.0119202
0.0119215
0.0119211
0.0119164
0.0119044
0.0118816
0.0118449
0.0117916
0.0117207
0.0116328
0.0115315
0.0114239
0.0113205
0.0112353
0.0111845
0.0111854
0.0112537
0.0114021
0.0116399
0.011974
0.0124129
0.0129673
0.0136765
0.0146406
0.0132862
0.0122057
0.0114404
0.0108792
0.0104611
0.010164
0.00997072
0.00986925
0.00984766
0.00989191
0.0099857
0.0101118
0.0102536
0.0103972
0.0105318
0.0106501
0.0107485
0.010826
0.0108838
0.0109244
0.0109511
0.0109673
0.0109763
0.0109807
0.0109824
0.0109824
0.0109807
0.0109763
0.0109673
0.0109511
0.0109244
0.0108838
0.010826
0.0107485
0.0106501
0.0105318
0.0103972
0.0102536
0.0101118
0.0099857
0.00989191
0.00984766
0.00986925
0.00997072
0.010164
0.0104611
0.0108792
0.0114404
0.0122057
0.0132862
0.0118451
0.0106574
0.00985262
0.00930384
0.00892255
0.0086738
0.0085328
0.00848336
0.00851165
0.0086029
0.00874066
0.00890771
0.00908765
0.00926639
0.00943307
0.00958047
0.00970476
0.00980496
0.00988225
0.00993926
0.00997935
0.0100061
0.0100229
0.0100324
0.0100367
0.0100367
0.0100324
0.0100229
0.0100061
0.00997935
0.00993926
0.00988225
0.00980496
0.00970476
0.00958047
0.00943307
0.00926638
0.00908765
0.00890771
0.00874066
0.0086029
0.00851165
0.00848336
0.0085328
0.0086738
0.00892255
0.00930384
0.00985262
0.0106574
0.0118451
0.0103011
0.00902276
0.00820162
0.00768878
0.00736158
0.00717282
0.00709136
0.00709841
0.00717926
0.00731904
0.00750148
0.0077096
0.00792716
0.00814015
0.00833777
0.00851278
0.00866137
0.00878263
0.00887785
0.00894978
0.00900197
0.00903816
0.00906186
0.00907593
0.00908244
0.00908244
0.00907593
0.00906186
0.00903816
0.00900197
0.00894978
0.00887785
0.00878263
0.00866137
0.00851278
0.00833777
0.00814015
0.00792716
0.0077096
0.00750148
0.00731904
0.00717926
0.00709841
0.00709136
0.00717282
0.00736158
0.00768878
0.00820162
0.00902276
0.0103011
0.00863458
0.00729486
0.00648929
0.00603998
0.00578503
0.00566708
0.00565125
0.00571812
0.00585331
0.00604245
0.00626976
0.00651862
0.00677304
0.00701917
0.00724629
0.00744725
0.00761836
0.00775886
0.00787022
0.00795544
0.00801828
0.0080627
0.00809239
0.00811037
0.00811881
0.00811881
0.00811037
0.00809239
0.0080627
0.00801828
0.00795544
0.00787022
0.00775886
0.00761836
0.00744725
0.00724629
0.00701917
0.00677304
0.00651862
0.00626976
0.00604245
0.00585331
0.00571812
0.00565125
0.00566708
0.00578503
0.00603998
0.00648929
0.00729486
0.00863458
0.00681146
0.00545928
0.00471573
0.0043632
0.0041996
0.00416246
0.00421716
0.00434604
0.00453638
0.00477489
0.00504652
0.00533513
0.00562502
0.00590253
0.00615713
0.00638184
0.00657318
0.00673065
0.00685601
0.00695255
0.00702432
0.00707555
0.00711014
0.00713131
0.0071413
0.0071413
0.00713131
0.00711014
0.00707555
0.00702432
0.00695255
0.00685601
0.00673065
0.00657318
0.00638184
0.00615713
0.00590253
0.00562502
0.00533513
0.00504652
0.00477489
0.00453638
0.00434604
0.00421716
0.00416246
0.0041996
0.0043632
0.00471573
0.00545928
0.00681146
0.00470741
0.00344001
0.00283619
0.00262707
0.00258032
0.00263804
0.00277174
0.0029684
0.00321823
0.00350955
0.00382816
0.00415839
0.00448487
0.00479417
0.00507598
0.00532364
0.005534
0.00570698
0.00584476
0.00595107
0.00603034
0.00608716
0.0061257
0.00614938
0.00616061
0.00616061
0.00614938
0.0061257
0.00608716
0.00603034
0.00595107
0.00584476
0.00570698
0.005534
0.00532364
0.00507598
0.00479417
0.00448487
0.00415839
0.00382816
0.00350955
0.00321823
0.0029684
0.00277174
0.00263804
0.00258032
0.00262707
0.00283619
0.00344001
0.00470741
0.00204617
0.0010979
0.000753041
0.000747001
0.000849751
0.00102367
0.00125418
0.00153601
0.00186315
0.00222553
0.00260925
0.0029985
0.00337758
0.00373284
0.00405395
0.00433446
0.00457164
0.00476601
0.00492046
0.00503945
0.00512813
0.00519169
0.00523485
0.00526141
0.00527403
0.00527403
0.00526141
0.00523485
0.00519169
0.00512813
0.00503945
0.00492046
0.00476601
0.00457164
0.00433446
0.00405395
0.00373284
0.00337758
0.0029985
0.00260925
0.00222553
0.00186315
0.00153601
0.00125418
0.00102367
0.000849751
0.000747001
0.000753042
0.0010979
0.00204617
-0.000868072
-0.00112635
-0.00115956
-0.000980889
-0.000761286
-0.000502243
-0.000198694
0.000153367
0.000551344
0.000985666
0.00144127
0.00190043
0.00234541
0.00276079
0.00313502
0.00346098
0.00373588
0.00396062
0.00413884
0.00427586
0.00437783
0.00445082
0.00450032
0.00453075
0.00454518
0.00454518
0.00453075
0.00450032
0.00445082
0.00437783
0.00427586
0.00413884
0.00396062
0.00373588
0.00346098
0.00313502
0.00276079
0.00234541
0.00190043
0.00144127
0.000985666
0.000551344
0.000153367
-0.000198694
-0.000502243
-0.000761286
-0.000980889
-0.00115956
-0.00112635
-0.000868072
-0.000475732
-0.000456226
-0.000480905
-0.000447861
-0.000409024
-0.000346517
-0.000247394
-0.000103692
8.57559e-05
0.000315691
0.00057577
0.000852611
0.00113203
0.00140103
0.00164922
0.00186947
0.00205801
0.00221403
0.00233901
0.00243594
0.00250858
0.00256088
0.00259649
0.00261836
0.00262861
0.00262861
0.00261836
0.00259649
0.00256088
0.00250858
0.00243594
0.00233901
0.00221403
0.00205801
0.00186947
0.00164922
0.00140103
0.00113203
0.000852611
0.00057577
0.000315691
8.57559e-05
-0.000103692
-0.000247394
-0.000346517
-0.000409024
-0.000447861
-0.000480905
-0.000456226
-0.000475732
)
;

boundaryField
{
    left
    {
        type            zeroGradient;
    }
    right
    {
        type            zeroGradient;
    }
    up
    {
        type            fixedValue;
        value           uniform 0;
    }
    down
    {
        type            zeroGradient;
    }
    frontAndBack
    {
        type            empty;
    }
}


// ************************************************************************* //
