/*--------------------------------*- C++ -*----------------------------------*\
  =========                 |
  \\      /  F ield         | OpenFOAM: The Open Source CFD Toolbox
   \\    /   O peration     | Website:  https://openfoam.org
    \\  /    A nd           | Version:  6
     \\/     M anipulation  |
\*---------------------------------------------------------------------------*/
FoamFile
{
    version     2.0;
    format      ascii;
    class       volVectorField;
    location    "3200";
    object      U;
}
// * * * * * * * * * * * * * * * * * * * * * * * * * * * * * * * * * * * * * //

dimensions      [0 1 -1 0 0 0 0];

internalField   nonuniform List<vector> 
2500
(
(0.0200115 0.36237 -4.67547e-19)
(0.0401499 0.407146 -8.80422e-20)
(0.0222494 0.401658 2.58934e-20)
(0.0138057 0.400763 1.28456e-20)
(0.0094591 0.400419 7.97131e-21)
(0.00679298 0.400233 4.17565e-20)
(0.00511299 0.400148 0)
(0.00399075 0.400101 -2.97733e-20)
(0.0032035 0.400073 2.34588e-21)
(0.0026283 0.400055 1.92818e-21)
(0.00219276 0.400043 2.55462e-20)
(0.00185237 0.400034 0)
(0.00157872 0.400028 0)
(0.00135308 0.400023 -1.01995e-20)
(0.00116272 0.400019 4.37799e-22)
(0.000998783 0.400016 9.77058e-21)
(0.000854923 0.400014 -9.07261e-21)
(0.000726494 0.400012 9.07637e-21)
(0.000610012 0.40001 0)
(0.000502791 0.400009 -4.19097e-21)
(0.000402709 0.400008 4.19257e-21)
(0.000308041 0.400007 0)
(0.000217341 0.400007 0)
(0.000129353 0.400007 9.98566e-22)
(4.29442e-05 0.400006 -9.98905e-22)
(-4.29442e-05 0.400006 -9.98905e-22)
(-0.000129353 0.400007 9.98566e-22)
(-0.000217341 0.400007 0)
(-0.000308041 0.400007 0)
(-0.000402709 0.400008 4.19257e-21)
(-0.000502791 0.400009 -4.19097e-21)
(-0.000610012 0.40001 0)
(-0.000726494 0.400012 9.07637e-21)
(-0.000854923 0.400014 -9.07261e-21)
(-0.000998783 0.400016 9.77058e-21)
(-0.00116272 0.400019 4.37799e-22)
(-0.00135308 0.400023 -1.01995e-20)
(-0.00157872 0.400028 0)
(-0.00185237 0.400034 0)
(-0.00219276 0.400043 2.55462e-20)
(-0.0026283 0.400055 1.92818e-21)
(-0.0032035 0.400073 2.34588e-21)
(-0.00399075 0.400101 -2.97733e-20)
(-0.00511299 0.400148 0)
(-0.00679298 0.400233 4.17565e-20)
(-0.0094591 0.400419 7.97131e-21)
(-0.0138057 0.400763 1.28456e-20)
(-0.0222494 0.401658 2.58934e-20)
(-0.0401499 0.407146 -8.80422e-20)
(-0.0200115 0.36237 4.67547e-19)
(0.0253452 0.314021 1.7624e-19)
(0.0743936 0.408077 -2.9825e-19)
(0.054689 0.409155 1.13911e-19)
(0.0386623 0.405905 -6.7865e-20)
(0.0278484 0.403581 1.25092e-19)
(0.0205429 0.402218 -1.0683e-19)
(0.0156454 0.401448 4.97801e-20)
(0.0122635 0.400992 0)
(0.00985046 0.400709 0)
(0.00807287 0.400527 0)
(0.00672277 0.400404 0)
(0.00566761 0.40032 0)
(0.00482079 0.40026 0)
(0.00412434 0.400216 -1.37263e-20)
(0.00353854 0.400184 1.37357e-20)
(0.00303554 0.400159 1.26321e-20)
(0.00259538 0.400141 -1.264e-20)
(0.00220344 0.400127 0)
(0.00184873 0.400115 0)
(0.00152285 0.400107 0)
(0.00121913 0.4001 0)
(0.000932194 0.400095 2.72695e-21)
(0.000657542 0.400092 -2.72835e-21)
(0.000391274 0.40009 0)
(0.00012989 0.400088 0)
(-0.00012989 0.400088 0)
(-0.000391274 0.40009 0)
(-0.000657542 0.400092 -2.72835e-21)
(-0.000932194 0.400095 2.72695e-21)
(-0.00121913 0.4001 0)
(-0.00152285 0.400107 0)
(-0.00184873 0.400115 0)
(-0.00220344 0.400127 0)
(-0.00259538 0.400141 -1.264e-20)
(-0.00303554 0.400159 1.26321e-20)
(-0.00353854 0.400184 1.37357e-20)
(-0.00412434 0.400216 -1.37263e-20)
(-0.00482079 0.40026 0)
(-0.00566761 0.40032 0)
(-0.00672277 0.400404 0)
(-0.00807287 0.400527 0)
(-0.00985046 0.400709 0)
(-0.0122635 0.400992 0)
(-0.0156454 0.401448 4.97801e-20)
(-0.0205429 0.402218 -1.0683e-19)
(-0.0278484 0.403581 1.25092e-19)
(-0.0386623 0.405905 -6.7865e-20)
(-0.054689 0.409155 1.13911e-19)
(-0.0743936 0.408077 -2.9825e-19)
(-0.0253452 0.314021 1.7624e-19)
(0.0168197 0.264832 0)
(0.0775719 0.396795 0)
(0.072403 0.415299 -8.29818e-20)
(0.0578165 0.41328 1.50889e-19)
(0.0441538 0.409127 -6.79535e-20)
(0.0336525 0.406075 0)
(0.0260746 0.40412 -4.46714e-20)
(0.0206159 0.40288 4.47633e-20)
(0.0166253 0.40208 0)
(0.0136443 0.401551 0)
(0.011363 0.401192 0)
(0.00957345 0.400942 0)
(0.00813554 0.400764 0)
(0.00695328 0.400634 1.37378e-20)
(0.00595993 0.400538 -1.37483e-20)
(0.00510827 0.400466 0)
(0.00436423 0.400411 0)
(0.00370275 0.400369 1.18238e-20)
(0.00310501 0.400336 -1.18312e-20)
(0.00255653 0.400311 0)
(0.00204593 0.400292 0)
(0.00156398 0.400277 0)
(0.00110296 0.400267 0)
(0.000656241 0.400261 0)
(0.000217836 0.400257 0)
(-0.000217836 0.400257 0)
(-0.000656241 0.400261 0)
(-0.00110296 0.400267 0)
(-0.00156398 0.400277 0)
(-0.00204593 0.400292 0)
(-0.00255653 0.400311 0)
(-0.00310501 0.400336 -1.18312e-20)
(-0.00370275 0.400369 1.18238e-20)
(-0.00436423 0.400411 0)
(-0.00510827 0.400466 0)
(-0.00595993 0.400538 -1.37483e-20)
(-0.00695328 0.400634 1.37378e-20)
(-0.00813554 0.400764 0)
(-0.00957345 0.400942 0)
(-0.011363 0.401192 0)
(-0.0136443 0.401551 0)
(-0.0166253 0.40208 0)
(-0.0206159 0.40288 4.47633e-20)
(-0.0260746 0.40412 -4.46714e-20)
(-0.0336525 0.406075 0)
(-0.0441538 0.409127 -6.79535e-20)
(-0.0578165 0.41328 1.50889e-19)
(-0.072403 0.415299 -8.29818e-20)
(-0.0775719 0.396795 0)
(-0.0168197 0.264832 0)
(0.00759695 0.218289 0)
(0.0677893 0.37594 0)
(0.0780519 0.416193 0)
(0.070096 0.420031 0)
(0.0571554 0.41574 0)
(0.0452993 0.411268 0)
(0.0359048 0.407964 0)
(0.0287574 0.405701 0)
(0.0233565 0.404174 0)
(0.019239 0.403136 0)
(0.0160488 0.402418 0)
(0.0135283 0.401913 0)
(0.0114953 0.401551 0)
(0.00982076 0.401287 0)
(0.00841325 0.401091 0)
(0.00720697 0.400943 0)
(0.00615396 0.40083 0)
(0.00521872 0.400744 0)
(0.00437444 0.400677 0)
(0.00360048 0.400626 0)
(0.00288057 0.400586 0)
(0.00220152 0.400557 0)
(0.00155233 0.400536 0)
(0.000923508 0.400523 0)
(0.000306538 0.400516 0)
(-0.000306538 0.400516 0)
(-0.000923508 0.400523 0)
(-0.00155233 0.400536 0)
(-0.00220152 0.400557 0)
(-0.00288057 0.400586 0)
(-0.00360048 0.400626 0)
(-0.00437444 0.400677 0)
(-0.00521872 0.400744 0)
(-0.00615396 0.40083 0)
(-0.00720697 0.400943 0)
(-0.00841325 0.401091 0)
(-0.00982076 0.401287 0)
(-0.0114953 0.401551 0)
(-0.0135283 0.401913 0)
(-0.0160488 0.402418 0)
(-0.019239 0.403136 0)
(-0.0233565 0.404174 0)
(-0.0287574 0.405701 0)
(-0.0359048 0.407964 0)
(-0.0452993 0.411268 0)
(-0.0571554 0.41574 0)
(-0.070096 0.420031 0)
(-0.0780519 0.416193 0)
(-0.0677893 0.37594 0)
(-0.00759695 0.218289 0)
(0.00108338 0.18058 0)
(0.0541466 0.350288 0)
(0.0756915 0.410813 0)
(0.0760408 0.423952 0)
(0.0663984 0.421901 0)
(0.0549513 0.416969 0)
(0.0447391 0.412559 0)
(0.0364264 0.409247 0)
(0.0298783 0.406887 0)
(0.0247526 0.405227 0)
(0.0207138 0.404054 0)
(0.017489 0.403217 0)
(0.014871 0.402611 0)
(0.0127069 0.402167 0)
(0.0108844 0.401835 0)
(0.00932141 0.401585 0)
(0.00795698 0.401395 0)
(0.0067456 0.401248 0)
(0.00565266 0.401135 0)
(0.00465137 0.401048 0)
(0.00372054 0.400981 0)
(0.002843 0.400931 0)
(0.0020044 0.400896 0)
(0.00119235 0.400874 0)
(0.000395758 0.400863 0)
(-0.000395758 0.400863 0)
(-0.00119235 0.400874 0)
(-0.0020044 0.400896 0)
(-0.002843 0.400931 0)
(-0.00372054 0.400981 0)
(-0.00465137 0.401048 0)
(-0.00565266 0.401135 0)
(-0.0067456 0.401248 0)
(-0.00795698 0.401395 0)
(-0.00932141 0.401585 0)
(-0.0108844 0.401835 0)
(-0.0127069 0.402167 0)
(-0.014871 0.402611 0)
(-0.017489 0.403217 0)
(-0.0207138 0.404054 0)
(-0.0247526 0.405227 0)
(-0.0298783 0.406887 0)
(-0.0364264 0.409247 0)
(-0.0447391 0.412559 0)
(-0.0549513 0.416969 0)
(-0.0663984 0.421901 0)
(-0.0760408 0.423952 0)
(-0.0756915 0.410813 0)
(-0.0541466 0.350288 0)
(-0.00108338 0.18058 0)
(-0.00303957 0.151302 -7.14665e-20)
(0.0406746 0.323486 7.42207e-20)
(0.068803 0.400276 -7.18781e-20)
(0.0769579 0.424249 0)
(0.0720014 0.426571 0)
(0.0623657 0.422446 4.75989e-20)
(0.0523054 0.417481 -9.10257e-20)
(0.0434102 0.413287 4.33931e-20)
(0.0360422 0.410098 -3.66389e-20)
(0.0300857 0.407762 7.08429e-20)
(0.0252921 0.406068 -2.21021e-21)
(0.0214114 0.404838 -3.20261e-20)
(0.018233 0.403937 0)
(0.015591 0.40327 0)
(0.0133588 0.40277 1.3016e-20)
(0.011441 0.402392 -2.55388e-20)
(0.00976549 0.402103 1.25213e-20)
(0.00827755 0.401881 -1.17071e-20)
(0.00693522 0.401709 1.17161e-20)
(0.00570581 0.401576 -5.57111e-21)
(0.0045633 0.401475 1.0557e-22)
(0.00348656 0.4014 5.47296e-21)
(0.0024579 0.401347 -2.66921e-21)
(0.00146204 0.401312 2.67083e-21)
(0.000485256 0.401296 0)
(-0.000485256 0.401296 0)
(-0.00146204 0.401312 2.67083e-21)
(-0.0024579 0.401347 -2.66921e-21)
(-0.00348656 0.4014 5.47296e-21)
(-0.0045633 0.401475 1.0557e-22)
(-0.00570581 0.401576 -5.57111e-21)
(-0.00693522 0.401709 1.17161e-20)
(-0.00827755 0.401881 -1.17071e-20)
(-0.00976549 0.402103 1.25213e-20)
(-0.011441 0.402392 -2.55388e-20)
(-0.0133588 0.40277 1.3016e-20)
(-0.015591 0.40327 0)
(-0.018233 0.403937 0)
(-0.0214114 0.404838 -3.20261e-20)
(-0.0252921 0.406068 -2.21021e-21)
(-0.0300857 0.407762 7.08429e-20)
(-0.0360422 0.410098 -3.66389e-20)
(-0.0434102 0.413287 4.33931e-20)
(-0.0523054 0.417481 -9.10257e-20)
(-0.0623657 0.422446 4.75989e-20)
(-0.0720014 0.426571 0)
(-0.0769579 0.424249 0)
(-0.068803 0.400276 -7.18781e-20)
(-0.0406746 0.323486 7.42207e-20)
(0.00303957 0.151302 7.14665e-20)
(-0.00545784 0.128581 0)
(0.0290458 0.29757 0)
(0.0599165 0.386217 0)
(0.0743182 0.421014 -5.57809e-20)
(0.0744281 0.429187 5.56288e-20)
(0.0675354 0.427134 -4.6109e-20)
(0.0584553 0.422332 4.62767e-20)
(0.0495527 0.41758 0)
(0.0417234 0.41367 -3.61319e-20)
(0.0351477 0.410667 3.62306e-20)
(0.0297206 0.408421 3.16684e-20)
(0.0252523 0.406754 -4.66735e-20)
(0.0215513 0.405516 7.93163e-22)
(0.0184521 0.40459 1.41954e-20)
(0.0158215 0.403893 0)
(0.0135549 0.403362 0)
(0.0115714 0.402955 0)
(0.00980847 0.402642 -1.16394e-20)
(0.00821753 0.402399 1.1649e-20)
(0.00676032 0.402212 0)
(0.00540625 0.402069 -5.43915e-21)
(0.00413032 0.401963 8.12419e-21)
(0.00291156 0.401888 -5.33772e-21)
(0.00173182 0.401839 1.33663e-21)
(0.000574785 0.401816 1.32052e-21)
(-0.000574785 0.401816 1.32052e-21)
(-0.00173182 0.401839 1.33663e-21)
(-0.00291156 0.401888 -5.33772e-21)
(-0.00413032 0.401963 8.12419e-21)
(-0.00540625 0.402069 -5.43915e-21)
(-0.00676032 0.402212 0)
(-0.00821753 0.402399 1.1649e-20)
(-0.00980847 0.402642 -1.16394e-20)
(-0.0115714 0.402955 0)
(-0.0135549 0.403362 0)
(-0.0158215 0.403893 0)
(-0.0184521 0.40459 1.41954e-20)
(-0.0215513 0.405516 7.93163e-22)
(-0.0252523 0.406754 -4.66735e-20)
(-0.0297206 0.408421 3.16684e-20)
(-0.0351477 0.410667 3.62306e-20)
(-0.0417234 0.41367 -3.61319e-20)
(-0.0495527 0.41758 0)
(-0.0584553 0.422332 4.62767e-20)
(-0.0675354 0.427134 -4.6109e-20)
(-0.0744281 0.429187 5.56288e-20)
(-0.0743182 0.421014 -5.57809e-20)
(-0.0599165 0.386217 0)
(-0.0290458 0.29757 0)
(0.00545784 0.128581 0)
(-0.00669947 0.110923 -5.20937e-20)
(0.0197454 0.273583 5.32603e-20)
(0.0506724 0.370112 0)
(0.0694563 0.414756 -5.23109e-20)
(0.0743111 0.429555 5.20097e-20)
(0.0706294 0.430637 4.4448e-20)
(0.0631536 0.426767 -4.4581e-20)
(0.054759 0.421885 0)
(0.046827 0.417453 3.55033e-20)
(0.0398619 0.413851 -6.88556e-20)
(0.0339421 0.411059 6.46136e-20)
(0.0289704 0.408936 -3.13494e-20)
(0.0247964 0.407333 1.40415e-20)
(0.0212693 0.406119 -6.70614e-22)
(0.0182573 0.405197 -1.34102e-20)
(0.0156519 0.404492 0)
(0.0133664 0.403949 -1.19172e-20)
(0.0113322 0.40353 2.34862e-20)
(0.00949487 0.403205 -1.71954e-20)
(0.00781134 0.402954 5.63215e-21)
(0.00624671 0.402763 5.4033e-21)
(0.00477233 0.40262 -2.74337e-21)
(0.00336405 0.402519 -2.81102e-23)
(0.00200093 0.402454 -3.95052e-21)
(0.000664096 0.402422 1.31208e-21)
(-0.000664096 0.402422 1.31208e-21)
(-0.00200093 0.402454 -3.95052e-21)
(-0.00336405 0.402519 -2.81102e-23)
(-0.00477233 0.40262 -2.74337e-21)
(-0.00624671 0.402763 5.4033e-21)
(-0.00781134 0.402954 5.63215e-21)
(-0.00949487 0.403205 -1.71954e-20)
(-0.0113322 0.40353 2.34862e-20)
(-0.0133664 0.403949 -1.19172e-20)
(-0.0156519 0.404492 0)
(-0.0182573 0.405197 -1.34102e-20)
(-0.0212693 0.406119 -6.70614e-22)
(-0.0247964 0.407333 1.40415e-20)
(-0.0289704 0.408936 -3.13494e-20)
(-0.0339421 0.411059 6.46136e-20)
(-0.0398619 0.413851 -6.88556e-20)
(-0.046827 0.417453 3.55033e-20)
(-0.054759 0.421885 0)
(-0.0631536 0.426767 -4.4581e-20)
(-0.0706294 0.430637 4.4448e-20)
(-0.0743111 0.429555 5.20097e-20)
(-0.0694563 0.414756 -5.23109e-20)
(-0.0506724 0.370112 0)
(-0.0197454 0.273583 5.32603e-20)
(0.00669947 0.110923 -5.20937e-20)
(-0.0071673 0.0971765 0)
(0.0126763 0.251987 0)
(0.0420114 0.353131 -5.18751e-20)
(0.0634394 0.406149 5.07434e-20)
(0.0723183 0.427745 0)
(0.0719291 0.432734 -4.26947e-20)
(0.0664585 0.430515 4.2782e-20)
(0.0589925 0.425983 0)
(0.0512903 0.421292 0)
(0.0441679 0.417216 0)
(0.0379073 0.413922 0)
(0.0325281 0.411347 -1.45971e-20)
(0.0279407 0.409364 1.46258e-20)
(0.0240222 0.407843 0)
(0.0206513 0.406676 0)
(0.0177211 0.405777 0)
(0.0151424 0.405082 0)
(0.0128425 0.404543 5.73102e-21)
(0.0107626 0.404125 -5.73638e-21)
(0.00885529 0.403801 0)
(0.007082 0.403554 0)
(0.00541064 0.40337 0)
(0.00381406 0.403239 0)
(0.0022686 0.403155 0)
(0.000752937 0.403114 0)
(-0.000752937 0.403114 0)
(-0.0022686 0.403155 0)
(-0.00381406 0.403239 0)
(-0.00541064 0.40337 0)
(-0.007082 0.403554 0)
(-0.00885529 0.403801 0)
(-0.0107626 0.404125 -5.73638e-21)
(-0.0128425 0.404543 5.73102e-21)
(-0.0151424 0.405082 0)
(-0.0177211 0.405777 0)
(-0.0206513 0.406676 0)
(-0.0240222 0.407843 0)
(-0.0279407 0.409364 1.46258e-20)
(-0.0325281 0.411347 -1.45971e-20)
(-0.0379073 0.413922 0)
(-0.0441679 0.417216 0)
(-0.0512903 0.421292 0)
(-0.0589925 0.425983 0)
(-0.0664585 0.430515 4.2782e-20)
(-0.0719291 0.432734 -4.26947e-20)
(-0.0723183 0.427745 0)
(-0.0634394 0.406149 5.07434e-20)
(-0.0420114 0.353131 -5.18751e-20)
(-0.0126763 0.251987 0)
(0.0071673 0.0971765 0)
(-0.00715418 0.0864118 -4.16771e-21)
(0.00750864 0.23288 4.15627e-20)
(0.0343901 0.33613 -4.78443e-20)
(0.0570427 0.39589 4.66727e-20)
(0.069065 0.424001 0)
(0.07177 0.433356 0)
(0.0684965 0.433394 -3.84231e-20)
(0.0622683 0.42969 7.46226e-20)
(0.0550826 0.425045 -2.25192e-21)
(0.0480235 0.420661 -2.03816e-21)
(0.0415767 0.416943 -3.21221e-20)
(0.0358931 0.413945 0)
(0.030959 0.411584 -1.36957e-20)
(0.0266919 0.409745 1.37207e-20)
(0.0229893 0.408318 0)
(0.0197519 0.40721 1.20985e-20)
(0.0168913 0.406349 -4.16214e-22)
(0.0143332 0.405678 -1.17098e-20)
(0.0120159 0.405156 0)
(0.00988865 0.404752 0)
(0.00790949 0.404442 -5.31498e-21)
(0.00604333 0.404212 2.6982e-21)
(0.00426027 0.404048 5.21845e-21)
(0.00253408 0.403942 -1.30684e-21)
(0.000841056 0.403891 -1.2914e-21)
(-0.000841056 0.403891 -1.2914e-21)
(-0.00253408 0.403942 -1.30684e-21)
(-0.00426027 0.404048 5.21845e-21)
(-0.00604333 0.404212 2.6982e-21)
(-0.00790949 0.404442 -5.31498e-21)
(-0.00988865 0.404752 0)
(-0.0120159 0.405156 0)
(-0.0143332 0.405678 -1.17098e-20)
(-0.0168913 0.406349 -4.16214e-22)
(-0.0197519 0.40721 1.20985e-20)
(-0.0229893 0.408318 0)
(-0.0266919 0.409745 1.37207e-20)
(-0.030959 0.411584 -1.36957e-20)
(-0.0358931 0.413945 0)
(-0.0415767 0.416943 -3.21221e-20)
(-0.0480235 0.420661 -2.03816e-21)
(-0.0550826 0.425045 -2.25192e-21)
(-0.0622683 0.42969 7.46226e-20)
(-0.0684965 0.433394 -3.84231e-20)
(-0.07177 0.433356 0)
(-0.069065 0.424001 0)
(-0.0570427 0.39589 4.66727e-20)
(-0.0343901 0.33613 -4.78443e-20)
(-0.00750864 0.23288 4.15627e-20)
(0.00715418 0.0864118 -7.65737e-20)
(-0.00685755 0.0779027 -3.81664e-21)
(0.00386214 0.21615 3.77366e-20)
(0.0279628 0.319683 0)
(0.0507832 0.384605 0)
(0.0650681 0.418657 0)
(0.070495 0.432554 0)
(0.0694365 0.435304 0)
(0.0646419 0.432867 0)
(0.0582021 0.428584 0)
(0.0514043 0.424089 0)
(0.0449211 0.420056 1.48597e-20)
(0.0390386 0.416683 -2.90345e-20)
(0.0338294 0.413962 1.41681e-20)
(0.029261 0.411806 1.29113e-20)
(0.0252581 0.410111 -1.29332e-20)
(0.0217339 0.408784 0)
(0.0186053 0.407745 0)
(0.0157985 0.406932 0)
(0.0132504 0.406297 0)
(0.0109079 0.405804 0)
(0.00872654 0.405426 0)
(0.0066685 0.405144 0)
(0.00470137 0.404944 0)
(0.00279659 0.404815 0)
(0.000928206 0.404752 0)
(-0.000928206 0.404752 0)
(-0.00279659 0.404815 0)
(-0.00470137 0.404944 0)
(-0.0066685 0.405144 0)
(-0.00872654 0.405426 0)
(-0.0109079 0.405804 0)
(-0.0132504 0.406297 0)
(-0.0157985 0.406932 0)
(-0.0186053 0.407745 0)
(-0.0217339 0.408784 0)
(-0.0252581 0.410111 -1.29332e-20)
(-0.029261 0.411806 1.29113e-20)
(-0.0338294 0.413962 1.41681e-20)
(-0.0390386 0.416683 -2.90345e-20)
(-0.0449211 0.420056 1.48597e-20)
(-0.0514043 0.424089 0)
(-0.0582021 0.428584 0)
(-0.0646419 0.432867 0)
(-0.0694365 0.435304 0)
(-0.070495 0.432554 0)
(-0.0650681 0.418657 0)
(-0.0507832 0.384605 0)
(-0.0279628 0.319683 0)
(-0.00386214 0.21615 3.77366e-20)
(0.00685755 0.0779027 -6.92428e-20)
(-0.00640388 0.0710991 -3.41261e-21)
(0.00138667 0.201583 3.47875e-20)
(0.022711 0.304142 4.12493e-20)
(0.044974 0.372815 -4.00979e-20)
(0.0607318 0.412074 -3.91165e-20)
(0.0684231 0.43046 3.8828e-20)
(0.069467 0.436219 0)
(0.0661982 0.435419 -3.38676e-20)
(0.0606718 0.431809 1.78706e-20)
(0.0543032 0.427415 1.61314e-20)
(0.0479219 0.423194 1.45452e-20)
(0.0419442 0.419517 -2.84546e-20)
(0.0365333 0.416468 6.43774e-22)
(0.0317143 0.414005 2.59989e-20)
(0.0274454 0.412041 -5.10313e-22)
(0.0236578 0.410488 -1.22438e-20)
(0.0202771 0.409262 0)
(0.0172326 0.408299 0)
(0.0144616 0.407543 0)
(0.0119098 0.406955 0)
(0.00953061 0.406503 0)
(0.00728428 0.406166 2.56777e-21)
(0.00513612 0.405925 -2.5698e-21)
(0.00305542 0.405771 0)
(0.00101415 0.405696 0)
(-0.00101415 0.405696 0)
(-0.00305542 0.405771 0)
(-0.00513612 0.405925 -2.5698e-21)
(-0.00728428 0.406166 2.56777e-21)
(-0.00953061 0.406503 0)
(-0.0119098 0.406955 0)
(-0.0144616 0.407543 0)
(-0.0172326 0.408299 0)
(-0.0202771 0.409262 0)
(-0.0236578 0.410488 -1.22438e-20)
(-0.0274454 0.412041 -5.10313e-22)
(-0.0317143 0.414005 2.59989e-20)
(-0.0365333 0.416468 6.43774e-22)
(-0.0419442 0.419517 -2.84546e-20)
(-0.0479219 0.423194 1.45452e-20)
(-0.0543032 0.427415 1.61314e-20)
(-0.0606718 0.431809 1.78706e-20)
(-0.0661982 0.435419 -3.38676e-20)
(-0.069467 0.436219 0)
(-0.0684231 0.43046 3.8828e-20)
(-0.0607318 0.412074 -3.91165e-20)
(-0.044974 0.372815 -4.00979e-20)
(-0.022711 0.304142 4.12493e-20)
(-0.00138667 0.201583 3.47875e-20)
(0.00640388 0.0710991 -6.37247e-20)
(-0.0058717 0.0655919 0)
(-0.000209726 0.18893 3.75392e-20)
(0.0185289 0.289696 -7.46079e-20)
(0.0397802 0.360924 3.7473e-20)
(0.0563535 0.404602 0)
(0.0658321 0.427252 0)
(0.0687782 0.436172 -3.42624e-20)
(0.0670403 0.437299 3.42696e-20)
(0.0625338 0.434642 0)
(0.0567277 0.430563 1.48876e-20)
(0.0505708 0.426297 -1.49306e-20)
(0.0445957 0.4224 1.35848e-20)
(0.0390561 0.419068 -6.05752e-22)
(0.0340388 0.416318 -1.30411e-20)
(0.0295404 0.414093 0)
(0.0255149 0.412311 1.16206e-20)
(0.0218997 0.410895 -1.16377e-20)
(0.0186302 0.409774 0)
(0.0156453 0.408891 5.34133e-21)
(0.0128909 0.408202 -5.34693e-21)
(0.0103193 0.407672 0)
(0.00788887 0.407274 0)
(0.00556327 0.406991 0)
(0.00330984 0.406809 0)
(0.00109864 0.40672 0)
(-0.00109864 0.40672 0)
(-0.00330984 0.406809 0)
(-0.00556327 0.406991 0)
(-0.00788887 0.407274 0)
(-0.0103193 0.407672 0)
(-0.0128909 0.408202 -5.34693e-21)
(-0.0156453 0.408891 5.34133e-21)
(-0.0186302 0.409774 0)
(-0.0218997 0.410895 -1.16377e-20)
(-0.0255149 0.412311 1.16206e-20)
(-0.0295404 0.414093 0)
(-0.0340388 0.416318 -1.30411e-20)
(-0.0390561 0.419068 -6.05752e-22)
(-0.0445957 0.4224 1.35848e-20)
(-0.0505708 0.426297 -1.49306e-20)
(-0.0567277 0.430563 1.48876e-20)
(-0.0625338 0.434642 0)
(-0.0670403 0.437299 3.42696e-20)
(-0.0687782 0.436172 -3.42624e-20)
(-0.0658321 0.427252 0)
(-0.0563535 0.404602 0)
(-0.0397802 0.360924 3.7473e-20)
(-0.0185289 0.289696 -7.46079e-20)
(0.000209726 0.18893 3.75392e-20)
(0.0058717 0.0655919 0)
(-0.00530835 0.0610781 -2.67725e-20)
(-0.00115731 0.177941 0)
(0.0152756 0.276419 0)
(0.0352659 0.349232 -3.61138e-20)
(0.0521383 0.39655 3.54186e-20)
(0.0629507 0.42313 0)
(0.0675489 0.435235 0)
(0.0672792 0.438493 0)
(0.0638437 0.437031 0)
(0.058698 0.433473 0)
(0.0528684 0.42931 0)
(0.0469854 0.42529 0)
(0.0413873 0.421731 0)
(0.0362238 0.418724 0)
(0.0315338 0.416249 0)
(0.0272972 0.414244 0)
(0.0234669 0.412634 0)
(0.0199861 0.411352 0)
(0.0167976 0.410337 0)
(0.0138483 0.409542 0)
(0.0110901 0.408928 0)
(0.00848056 0.408468 0)
(0.00598165 0.408139 0)
(0.00355916 0.407928 0)
(0.00118146 0.407825 0)
(-0.00118146 0.407825 0)
(-0.00355916 0.407928 0)
(-0.00598165 0.408139 0)
(-0.00848056 0.408468 0)
(-0.0110901 0.408928 0)
(-0.0138483 0.409542 0)
(-0.0167976 0.410337 0)
(-0.0199861 0.411352 0)
(-0.0234669 0.412634 0)
(-0.0272972 0.414244 0)
(-0.0315338 0.416249 0)
(-0.0362238 0.418724 0)
(-0.0413873 0.421731 0)
(-0.0469854 0.42529 0)
(-0.0528684 0.42931 0)
(-0.058698 0.433473 0)
(-0.0638437 0.437031 0)
(-0.0672792 0.438493 0)
(-0.0675489 0.435235 0)
(-0.0629507 0.42313 0)
(-0.0521383 0.39655 3.54186e-20)
(-0.0352659 0.349232 -3.61138e-20)
(-0.0152756 0.276419 0)
(0.00115731 0.177941 0)
(0.00530835 0.0610781 2.67725e-20)
(-0.00474132 0.057334 -2.56134e-20)
(-0.00163147 0.168385 0)
(0.0128049 0.264312 3.42572e-20)
(0.0314307 0.337946 1.00021e-21)
(0.0482172 0.388185 -3.35445e-20)
(0.0599589 0.418295 0)
(0.0659392 0.433509 1.58097e-20)
(0.0670264 0.439022 -1.57808e-20)
(0.0646657 0.438948 0)
(0.0602438 0.436099 0)
(0.0548238 0.432186 0)
(0.0491111 0.428145 -1.29665e-20)
(0.0435201 0.424425 2.54711e-20)
(0.0382614 0.421198 -4.84094e-22)
(0.0334178 0.418493 -1.20414e-20)
(0.0289982 0.416272 0)
(0.0249731 0.414471 0)
(0.0212959 0.413025 0)
(0.0179148 0.411875 5.1866e-21)
(0.014779 0.41097 -1.02769e-20)
(0.011841 0.41027 5.08961e-21)
(0.0090577 0.409744 2.4695e-21)
(0.00639014 0.409368 -2.47162e-21)
(0.00380273 0.409126 0)
(0.0012624 0.409007 0)
(-0.0012624 0.409007 0)
(-0.00380273 0.409126 0)
(-0.00639014 0.409368 -2.47162e-21)
(-0.0090577 0.409744 2.4695e-21)
(-0.011841 0.41027 5.08961e-21)
(-0.014779 0.41097 -1.02769e-20)
(-0.0179148 0.411875 5.1866e-21)
(-0.0212959 0.413025 0)
(-0.0249731 0.414471 0)
(-0.0289982 0.416272 0)
(-0.0334178 0.418493 -1.20414e-20)
(-0.0382614 0.421198 -4.84094e-22)
(-0.0435201 0.424425 2.54711e-20)
(-0.0491111 0.428145 -1.29665e-20)
(-0.0548238 0.432186 0)
(-0.0602438 0.436099 0)
(-0.0646657 0.438948 0)
(-0.0670264 0.439022 -1.57808e-20)
(-0.0659392 0.433509 1.58097e-20)
(-0.0599589 0.418295 0)
(-0.0482172 0.388185 -3.35445e-20)
(-0.0314307 0.337946 1.00021e-21)
(-0.0128049 0.264312 3.42572e-20)
(0.00163147 0.168385 0)
(0.00474132 0.057334 2.56134e-20)
(-0.00418572 0.054194 0)
(-0.00176279 0.160058 0)
(0.0109806 0.253333 -3.24911e-20)
(0.0282367 0.327204 4.78056e-20)
(0.044665 0.379723 -1.59331e-20)
(0.0569916 0.412938 -1.5653e-20)
(0.0640858 0.431112 1.55395e-20)
(0.066388 0.438928 0)
(0.0650681 0.440388 -1.4154e-20)
(0.0614019 0.43841 1.41759e-20)
(0.0564522 0.434888 0)
(0.050976 0.430931 0)
(0.0454513 0.427121 0)
(0.040146 0.423718 1.17575e-20)
(0.0351864 0.420808 -1.17825e-20)
(0.030612 0.418383 0)
(0.0264131 0.416396 0)
(0.0225552 0.414788 0)
(0.0189935 0.413501 0)
(0.0156804 0.412484 0)
(0.0125698 0.411695 -2.46225e-21)
(0.00961876 0.4111 2.46462e-21)
(0.00678766 0.410674 -1.20549e-21)
(0.00403992 0.410399 6.06701e-22)
(0.00134124 0.410265 6.00217e-22)
(-0.00134124 0.410265 6.00217e-22)
(-0.00403992 0.410399 6.06701e-22)
(-0.00678766 0.410674 -1.20549e-21)
(-0.00961876 0.4111 2.46462e-21)
(-0.0125698 0.411695 -2.46225e-21)
(-0.0156804 0.412484 0)
(-0.0189935 0.413501 0)
(-0.0225552 0.414788 0)
(-0.0264131 0.416396 0)
(-0.030612 0.418383 0)
(-0.0351864 0.420808 -1.17825e-20)
(-0.040146 0.423718 1.17575e-20)
(-0.0454513 0.427121 0)
(-0.050976 0.430931 0)
(-0.0564522 0.434888 0)
(-0.0614019 0.43841 1.41759e-20)
(-0.0650681 0.440388 -1.4154e-20)
(-0.066388 0.438928 0)
(-0.0640858 0.431112 1.55395e-20)
(-0.0569916 0.412938 -1.5653e-20)
(-0.044665 0.379723 -1.59331e-20)
(-0.0282367 0.327204 4.78056e-20)
(-0.0109806 0.253333 -3.24911e-20)
(0.00176279 0.160058 0)
(0.00418572 0.054194 0)
(-0.00364915 0.0515347 -2.56337e-20)
(-0.00164708 0.152785 2.68716e-20)
(0.00968328 0.243415 0)
(0.0256266 0.317089 1.55172e-20)
(0.0415158 0.371332 -3.05044e-20)
(0.0541452 0.40723 1.51039e-20)
(0.0621016 0.428162 0)
(0.0654608 0.43827 1.41367e-20)
(0.0651188 0.441361 -1.41255e-20)
(0.0622131 0.440391 0)
(0.0577744 0.437389 1.27454e-20)
(0.0525877 0.433619 -2.50778e-20)
(0.0471814 0.429791 1.23321e-20)
(0.0418744 0.426263 5.74358e-21)
(0.036835 0.423178 -1.93547e-22)
(0.032134 0.420566 -1.75159e-22)
(0.0277828 0.418401 -1.56226e-22)
(0.0237606 0.416633 -1.37149e-22)
(0.0200306 0.41521 -5.12929e-21)
(0.01655 0.414079 0)
(0.0132746 0.413198 0)
(0.0101623 0.412533 0)
(0.00717325 0.412055 0)
(0.00427016 0.411748 0)
(0.0014178 0.411597 0)
(-0.0014178 0.411597 0)
(-0.00427016 0.411748 0)
(-0.00717325 0.412055 0)
(-0.0101623 0.412533 0)
(-0.0132746 0.413198 0)
(-0.01655 0.414079 0)
(-0.0200306 0.41521 -5.12929e-21)
(-0.0237606 0.416633 -1.37149e-22)
(-0.0277828 0.418401 -1.56226e-22)
(-0.032134 0.420566 -1.75159e-22)
(-0.036835 0.423178 -1.93547e-22)
(-0.0418744 0.426263 5.74358e-21)
(-0.0471814 0.429791 1.23321e-20)
(-0.0525877 0.433619 -2.50778e-20)
(-0.0577744 0.437389 1.27454e-20)
(-0.0622131 0.440391 0)
(-0.0651188 0.441361 -1.41255e-20)
(-0.0654608 0.43827 1.41367e-20)
(-0.0621016 0.428162 0)
(-0.0541452 0.40723 1.51039e-20)
(-0.0415158 0.371332 -3.05044e-20)
(-0.0256266 0.317089 1.55172e-20)
(-0.00968328 0.243415 0)
(0.00164708 0.152785 2.68716e-20)
(0.00364915 0.0515347 -2.56337e-20)
(-0.00313474 0.0492637 0)
(-0.00135395 0.146416 0)
(0.00881201 0.234476 1.47731e-20)
(0.0235349 0.307642 -1.43411e-20)
(0.0387752 0.363142 0)
(0.0514843 0.401321 0)
(0.0600761 0.424779 0)
(0.0643297 0.437117 0)
(0.0648833 0.441894 0)
(0.0627203 0.442036 0)
(0.0588146 0.439668 0)
(0.0539575 0.436183 0)
(0.0487138 0.432414 0)
(0.0434456 0.428811 5.60345e-21)
(0.0383608 0.425585 -5.61574e-21)
(0.0335605 0.422806 0)
(0.0290785 0.420474 -5.14321e-21)
(0.0249087 0.418553 5.15138e-21)
(0.0210235 0.416994 0)
(0.0173855 0.41575 2.41378e-21)
(0.0139537 0.414777 -2.4165e-21)
(0.010687 0.414039 0)
(0.00754597 0.41351 0)
(0.00449291 0.413168 -5.80077e-22)
(0.00149189 0.413 5.8052e-22)
(-0.00149189 0.413 5.8052e-22)
(-0.00449291 0.413168 -5.80077e-22)
(-0.00754597 0.41351 0)
(-0.010687 0.414039 0)
(-0.0139537 0.414777 -2.4165e-21)
(-0.0173855 0.41575 2.41378e-21)
(-0.0210235 0.416994 0)
(-0.0249087 0.418553 5.15138e-21)
(-0.0290785 0.420474 -5.14321e-21)
(-0.0335605 0.422806 0)
(-0.0383608 0.425585 -5.61574e-21)
(-0.0434456 0.428811 5.60345e-21)
(-0.0487138 0.432414 0)
(-0.0539575 0.436183 0)
(-0.0588146 0.439668 0)
(-0.0627203 0.442036 0)
(-0.0648833 0.441894 0)
(-0.0643297 0.437117 0)
(-0.0600761 0.424779 0)
(-0.0514843 0.401321 0)
(-0.0387752 0.363142 0)
(-0.0235349 0.307642 -1.43411e-20)
(-0.00881201 0.234476 1.47731e-20)
(0.00135395 0.146416 0)
(0.00313474 0.0492637 0)
(-0.0026431 0.0473108 1.13033e-20)
(-0.000933772 0.140824 1.3806e-20)
(0.00828337 0.226436 -1.33351e-20)
(0.021896 0.298876 0)
(0.0364308 0.355248 -1.40472e-20)
(0.0490486 0.395335 1.38214e-20)
(0.0580783 0.421074 0)
(0.0630675 0.435545 0)
(0.0644221 0.442021 1.27289e-20)
(0.0629663 0.443353 -1.27282e-20)
(0.0595991 0.441716 0)
(0.0550994 0.438606 -5.80338e-21)
(0.0500542 0.434969 5.81662e-21)
(0.0448608 0.431345 0)
(0.0397623 0.428014 0)
(0.0348892 0.425092 -5.15959e-21)
(0.0302976 0.422607 5.169e-21)
(0.0259969 0.420539 0)
(0.0219698 0.418849 0)
(0.0181851 0.417492 -2.36641e-21)
(0.0146055 0.416427 3.67626e-23)
(0.0111917 0.415617 2.3348e-21)
(0.00790499 0.415034 -1.14402e-21)
(0.00470766 0.414657 1.14499e-21)
(0.00156336 0.414472 0)
(-0.00156336 0.414472 0)
(-0.00470766 0.414657 1.14499e-21)
(-0.00790499 0.415034 -1.14402e-21)
(-0.0111917 0.415617 2.3348e-21)
(-0.0146055 0.416427 3.67626e-23)
(-0.0181851 0.417492 -2.36641e-21)
(-0.0219698 0.418849 0)
(-0.0259969 0.420539 0)
(-0.0302976 0.422607 5.169e-21)
(-0.0348892 0.425092 -5.15959e-21)
(-0.0397623 0.428014 0)
(-0.0448608 0.431345 0)
(-0.0500542 0.434969 5.81662e-21)
(-0.0550994 0.438606 -5.80338e-21)
(-0.0595991 0.441716 0)
(-0.0629663 0.443353 -1.27282e-20)
(-0.0644221 0.442021 1.27289e-20)
(-0.0630675 0.435545 0)
(-0.0580783 0.421074 0)
(-0.0490486 0.395335 1.38214e-20)
(-0.0364308 0.355248 -1.40472e-20)
(-0.021896 0.298876 0)
(-0.00828337 0.226436 -1.33351e-20)
(0.000933772 0.140824 1.3806e-20)
(0.0026431 0.0473108 -1.13033e-20)
(-0.0021735 0.0456224 -1.10307e-20)
(-0.00042288 0.135906 1.32971e-20)
(0.00802944 0.219214 -1.28563e-20)
(0.0206478 0.290787 0)
(0.0344586 0.347716 -1.34723e-20)
(0.0468586 0.389376 2.64772e-20)
(0.0561585 0.417148 -1.30824e-20)
(0.0617341 0.433627 0)
(0.0637894 0.441786 6.13451e-21)
(0.0629926 0.444356 -6.1307e-21)
(0.0601556 0.443528 0)
(0.0560296 0.440875 -5.62603e-21)
(0.0512107 0.437439 5.63805e-21)
(0.0461228 0.433849 0)
(0.0410394 0.430451 5.16647e-21)
(0.0361185 0.427412 -1.43428e-22)
(0.031438 0.42479 -5.04288e-21)
(0.0270231 0.422585 0)
(0.0228674 0.420768 -2.35633e-21)
(0.018947 0.419301 2.35946e-21)
(0.0152285 0.418144 1.1424e-21)
(0.0116753 0.417262 -1.14361e-21)
(0.00824956 0.416626 5.60719e-22)
(0.00491399 0.416213 -5.61199e-22)
(0.00163206 0.416011 0)
(-0.00163206 0.416011 0)
(-0.00491399 0.416213 -5.61199e-22)
(-0.00824956 0.416626 5.60719e-22)
(-0.0116753 0.417262 -1.14361e-21)
(-0.0152285 0.418144 1.1424e-21)
(-0.018947 0.419301 2.35946e-21)
(-0.0228674 0.420768 -2.35633e-21)
(-0.0270231 0.422585 0)
(-0.031438 0.42479 -5.04288e-21)
(-0.0361185 0.427412 -1.43428e-22)
(-0.0410394 0.430451 5.16647e-21)
(-0.0461228 0.433849 0)
(-0.0512107 0.437439 5.63805e-21)
(-0.0560296 0.440875 -5.62603e-21)
(-0.0601556 0.443528 0)
(-0.0629926 0.444356 -6.1307e-21)
(-0.0637894 0.441786 6.13451e-21)
(-0.0617341 0.433627 0)
(-0.0561585 0.417148 -1.30824e-20)
(-0.0468586 0.389376 2.64772e-20)
(-0.0344586 0.347716 -1.34723e-20)
(-0.0206478 0.290787 0)
(-0.00802944 0.219214 -1.28563e-20)
(0.00042288 0.135906 1.32971e-20)
(0.0021735 0.0456224 1.10307e-20)
(-0.00172451 0.0441567 0)
(0.00015245 0.131572 0)
(0.00799542 0.212733 -1.30642e-20)
(0.0197336 0.283353 6.16174e-21)
(0.0328285 0.340589 -7.84793e-23)
(0.044921 0.383528 4.7876e-24)
(0.054352 0.413092 6.39126e-23)
(0.060378 0.431438 1.22301e-20)