/*--------------------------------*- C++ -*----------------------------------*\
  =========                 |
  \\      /  F ield         | OpenFOAM: The Open Source CFD Toolbox
   \\    /   O peration     | Website:  https://openfoam.org
    \\  /    A nd           | Version:  6
     \\/     M anipulation  |
\*---------------------------------------------------------------------------*/
FoamFile
{
    version     2.0;
    format      ascii;
    class       volScalarField;
    location    "3200";
    object      p;
}
// * * * * * * * * * * * * * * * * * * * * * * * * * * * * * * * * * * * * * //

dimensions      [0 2 -2 0 0 0 0];

internalField   nonuniform List<scalar> 
2500
(
2.3586
1.20288
0.744883
0.538309
0.407349
0.321419
0.262759
0.220695
0.1895
0.165758
0.147303
0.132714
0.121025
0.11156
0.103836
0.0975005
0.0922917
0.0880133
0.0845166
0.0816884
0.0794427
0.077715
0.0764576
0.075637
0.0752319
0.0752319
0.075637
0.0764576
0.077715
0.0794427
0.0816884
0.0845166
0.0880133
0.0922917
0.0975005
0.103836
0.11156
0.121025
0.132714
0.147303
0.165758
0.1895
0.220695
0.262759
0.321419
0.407349
0.538309
0.744883
1.20288
2.3586
1.72712
0.938216
0.651431
0.494833
0.383594
0.307947
0.254611
0.215478
0.186025
0.163373
0.145633
0.131532
0.120186
0.110971
0.103433
0.0972381
0.0921371
0.0879422
0.0845102
0.0817321
0.0795248
0.0778257
0.0765886
0.075781
0.0753823
0.0753823
0.075781
0.0765886
0.0778257
0.0795248
0.0817321
0.0845102
0.0879422
0.0921371
0.0972381
0.103433
0.110971
0.120186
0.131532
0.145633
0.163373
0.186025
0.215478
0.254611
0.307947
0.383594
0.494833
0.651431
0.938216
1.72712
1.27757
0.746963
0.578015
0.454136
0.359297
0.293422
0.245417
0.209394
0.181872
0.160463
0.143554
0.130028
0.119092
0.110176
0.102861
0.0968345
0.0918631
0.0877683
0.084414
0.081696
0.0795346
0.0778698
0.076657
0.075865
0.0754739
0.0754739
0.075865
0.076657
0.0778698
0.0795346
0.081696
0.084414
0.0877683
0.0918631
0.0968345
0.102861
0.110176
0.119092
0.130028
0.143554
0.160463
0.181872
0.209394
0.245417
0.293422
0.359297
0.454136
0.578015
0.746963
1.27757
0.997282
0.626053
0.51657
0.413605
0.333862
0.277333
0.234724
0.202074
0.176735
0.156778
0.140863
0.128036
0.117604
0.109058
0.10202
0.0962045
0.0913943
0.0874239
0.0841659
0.0815221
0.0794175
0.0777948
0.076612
0.0758392
0.0754574
0.0754574
0.0758392
0.076612
0.0777948
0.0794175
0.0815221
0.0841659
0.0874239
0.0913943
0.0962045
0.10202
0.109058
0.117604
0.128036
0.140863
0.156778
0.176735
0.202074
0.234724
0.277333
0.333862
0.413605
0.51657
0.626053
0.997282
0.793316
0.531208
0.456316
0.372015
0.307138
0.259631
0.222548
0.193526
0.170607
0.152301
0.13754
0.125537
0.115706
0.107606
0.100903
0.0953421
0.090728
0.0869093
0.0837687
0.0812156
0.0791801
0.0776089
0.0764626
0.0757132
0.0753428
0.0753428
0.0757132
0.0764626
0.0776089
0.0791801
0.0812156
0.0837687
0.0869093
0.090728
0.0953421
0.100903
0.107606
0.115706
0.125537
0.13754
0.152301
0.170607
0.193526
0.222548
0.259631
0.307138
0.372015
0.456316
0.531208
0.793316
0.634533
0.450559
0.398967
0.331872
0.280406
0.241132
0.209451
0.184121
0.163735
0.147198
0.133699
0.122611
0.113454
0.105858
0.0995372
0.0942692
0.089881
0.0862375
0.083233
0.0807852
0.07883
0.0773188
0.076215
0.0754929
0.0751358
0.0751358
0.0754929
0.076215
0.0773188
0.07883
0.0807852
0.083233
0.0862375
0.089881
0.0942692
0.0995372
0.105858
0.113454
0.122611
0.133699
0.147198
0.163735
0.184121
0.209451
0.241132
0.280406
0.331872
0.398967
0.450559
0.634533
0.51203
0.383145
0.347142
0.294693
0.254495
0.222478
0.195893
0.174171
0.15633
0.141617
0.129442
0.119328
0.110897
0.10385
0.0979478
0.0930024
0.0888644
0.0854158
0.0825632
0.0802331
0.0783681
0.0769241
0.0758682
0.0751767
0.0748347
0.0748347
0.0751767
0.0758682
0.0769241
0.0783681
0.0802331
0.0825632
0.0854158
0.0888644
0.0930024
0.0979478
0.10385
0.110897
0.119328
0.129442
0.141617
0.15633
0.174171
0.195893
0.222478
0.254495
0.294693
0.347142
0.383145
0.51203
0.417552
0.326814
0.301072
0.260645
0.229701
0.204033
0.182167
0.163888
0.148547
0.135666
0.124844
0.115741
0.108074
0.101608
0.0961526
0.0915539
0.0876863
0.0844491
0.0817618
0.0795603
0.077794
0.0764238
0.0754204
0.0747627
0.0744371
0.0744371
0.0747627
0.0754204
0.0764238
0.077794
0.0795603
0.0817618
0.0844491
0.0876863
0.0915539
0.0961526
0.101608
0.108074
0.115741
0.124844
0.135666
0.148547
0.163888
0.182167
0.204033
0.229701
0.260645
0.301072
0.326814
0.417552
0.34335
0.278933
0.260161
0.22954
0.206168
0.186042
0.168482
0.153436
0.140509
0.129436
0.119974
0.1119
0.105018
0.0991556
0.094169
0.0899357
0.0863545
0.0833425
0.0808318
0.0787681
0.0771079
0.0758172
0.0748705
0.0742492
0.0739414
0.0739414
0.0742492
0.0748705
0.0758172
0.0771079
0.0787681
0.0808318
0.0833425
0.0863545
0.0899357
0.094169
0.0991556
0.105018
0.1119
0.119974
0.129436
0.140509
0.153436
0.168482
0.186042
0.206168
0.22954
0.260161
0.278933
0.34335
0.283715
0.237595
0.223837
0.201176
0.183986
0.168678
0.155001
0.142953
0.132324
0.123008
0.11489
0.107848
0.101761
0.0965172
0.0920134
0.0881593
0.0848771
0.082101
0.0797763
0.0778582
0.0763103
0.075104
0.0742175
0.073635
0.0733463
0.0733463
0.073635
0.0742175
0.075104
0.0763103
0.0778582
0.0797763
0.082101
0.0848771
0.0881593
0.0920134
0.0965172
0.101761
0.107848
0.11489
0.123008
0.132324
0.142953
0.155001
0.168678
0.183986
0.201176
0.223837
0.237595
0.283715
0.234731
0.201504
0.191567
0.175332
0.163193
0.152055
0.141843
0.132546
0.12408
0.116451
0.109645
0.103624
0.0983336
0.0937139
0.0897016
0.0862359
0.0832616
0.0807299
0.0785985
0.0768321
0.0754017
0.0742839
0.0734607
0.072919
0.0726502
0.0726502
0.072919
0.0734607
0.0742839
0.0754017
0.0768321
0.0785985
0.0807299
0.0832616
0.0862359
0.0897016
0.0937139
0.0983336
0.103624
0.109645
0.116451
0.12408
0.132546
0.141843
0.152055
0.163193
0.175332
0.191567
0.201504
0.234731
0.193675
0.169707
0.162833
0.151773
0.143778
0.136238
0.129095
0.122301
0.115851
0.109826
0.104287
0.0992638
0.0947619
0.0907657
0.087248
0.084176
0.0815156
0.0792339
0.0773012
0.0756915
0.0743826
0.0733566
0.0725991
0.0720999
0.0718519
0.0718519
0.0720999
0.0725991
0.0733566
0.0743826
0.0756915
0.0773012
0.0792339
0.0815156
0.084176
0.087248
0.0907657
0.0947619
0.0992638
0.104287
0.109826
0.115851
0.122301
0.129095
0.136238
0.143778
0.151773
0.162833
0.169707
0.193675
0.158632
0.141482
0.13717
0.130285
0.125709
0.121262
0.116819
0.112286
0.107697
0.103182
0.0988541
0.0947994
0.0910701
0.0876907
0.0846664
0.0819896
0.0796459
0.077618
0.0758877
0.0744381
0.0732538
0.072322
0.0716323
0.0711768
0.0709503
0.0709503
0.0711768
0.0716323
0.072322
0.0732538
0.0744381
0.0758877
0.077618
0.0796459
0.0819896
0.0846664
0.0876907
0.0910701
0.0947994
0.0988541
0.103182
0.107697
0.112286
0.116819
0.121262
0.125709
0.130285
0.13717
0.141482
0.158632
0.128263
0.116289
0.114186
0.11068
0.108942
0.107142
0.105059
0.102552
0.0996683
0.0965615
0.0933829
0.0902587
0.0872801
0.0845059
0.0819694
0.0796859
0.0776594
0.0758868
0.0743611
0.0730738
0.0720162
0.0711805
0.0705598
0.070149
0.0699445
0.0699445
0.070149
0.0705598
0.0711805
0.0720162
0.0730738
0.0743611
0.0758868
0.0776594
0.0796859
0.0819694
0.0845059
0.0872801
0.0902587
0.0933829
0.0965615
0.0996683
0.102552
0.105059
0.107142
0.108942
0.11068
0.114186
0.116289
0.128263
0.101636
0.0937227
0.0935613
0.0928034
0.0934249
0.0938798
0.0938452
0.0931387
0.0918047
0.0900016
0.0879036
0.0856665
0.083412
0.0812269
0.079169
0.0772743
0.0755631
0.0740454
0.0727247
0.0716007
0.070671
0.0699325
0.0693819
0.0690165
0.0688342
0.0688342
0.0690165
0.0693819
0.0699325
0.070671
0.0716007
0.0727247
0.0740454
0.0755631
0.0772743
0.079169
0.0812269
0.083412
0.0856665
0.0879036
0.0900016
0.0918047
0.0931387
0.0938452
0.0938798
0.0934249
0.0928034
0.0935613
0.0937227
0.101636
0.0781058
0.0734788
0.0750392
0.0765231
0.0791068
0.0814667
0.0831964
0.0840782
0.0841397
0.0835331
0.0824434
0.0810456
0.0794841
0.0778684
0.076277
0.0747637
0.0733636
0.0720987
0.0709823
0.0700216
0.0692201
0.0685792
0.068099
0.0677793
0.0676196
0.0676196
0.0677793
0.068099
0.0685792
0.0692201
0.0700216
0.0709823
0.0720987
0.0733636
0.0747637
0.076277
0.0778684
0.0794841
0.0810456
0.0824434
0.0835331
0.0841397
0.0840782
0.0831964
0.0814667
0.0791068
0.0765231
0.0750392
0.0734788
0.0781058
0.0572218
0.0553249
0.0584144
0.0617283
0.0659357
0.0698901
0.0731249
0.0753938
0.0767004
0.0771826
0.0770262
0.0764165
0.0755135
0.0744444
0.0733047
0.0721631
0.0710681
0.0700524
0.0691381
0.0683395
0.0676657
0.0671222
0.0667126
0.0664386
0.0663014
0.0663014
0.0664386
0.0667126
0.0671222
0.0676657
0.0683395
0.0691381
0.0700524
0.0710681
0.0721631
0.0733047
0.0744444
0.0755135
0.0764165
0.0770262
0.0771826
0.0767004
0.0753938
0.0731249
0.0698901
0.0659357
0.0617283
0.0584144
0.0553249
0.0572218
0.0386701
0.0390818
0.0435224
0.0483251
0.0538625
0.0591342
0.0636371
0.0671035
0.0695096
0.0709735
0.0716735
0.0717981
0.0715165
0.0709686
0.0702631
0.0694817
0.068684
0.0679124
0.067197
0.0665584
0.0660109
0.0655642
0.0652246
0.0649962
0.0648814
0.0648814
0.0649962
0.0652246
0.0655642
0.0660109
0.0665584
0.067197
0.0679124
0.068684
0.0694817
0.0702631
0.0709686
0.0715165
0.0717981
0.0716735
0.0709735
0.0695096
0.0671035
0.0636371
0.0591342
0.0538625
0.0483251
0.0435224
0.0390818
0.0386701
0.0222299
0.0246092
0.0302306
0.0362325
0.0428412
0.0491814
0.0547357
0.0592211
0.0625866
0.0649262
0.0664051
0.0672082
0.0675086
0.0674542
0.0671637
0.0667291
0.0662194
0.0656855
0.0651644
0.0646829
0.0642598
0.0639084
0.063638
0.0634547
0.0633621
0.0633621
0.0634547
0.063638
0.0639084
0.0642598
0.0646829
0.0651644
0.0656855
0.0662194
0.0667291
0.0671637
0.0674542
0.0675086
0.0672082
0.0664051
0.0649262
0.0625866
0.0592211
0.0547357
0.0491814
0.0428412
0.0362325
0.0302306
0.0246092
0.0222299
0.00774277
0.0117941
0.0184294
0.0253794
0.0328285
0.0400134
0.0464204
0.0517575
0.0559478
0.0590593
0.0612393
0.0626639
0.0635051
0.0639146
0.0640182
0.0639153
0.063683
0.0633791
0.0630471
0.0627188
0.0624173
0.0621595
0.0619571
0.0618181
0.0617474
0.0617474
0.0618181
0.0619571
0.0621595
0.0624173
0.0627188
0.0630471
0.0633791
0.063683
0.0639153
0.0640182
0.0639146
0.0635051
0.0626639
0.0612393
0.0590593
0.0559478
0.0517575
0.0464204
0.0400134
0.0328285
0.0253794
0.0184294
0.0117941
0.00774277
-0.00491346
0.000539248
0.0080231
0.0157
0.0237822
0.0316099
0.0386875
0.0447199
0.0496065
0.0533887
0.0561926
0.058181
0.0595204
0.060363
0.060838
0.0610506
0.0610837
0.0610013
0.0608521
0.0606724
0.0604894
0.0603228
0.0601868
0.0600912
0.0600419
0.0600419
0.0600912
0.0601868
0.0603228
0.0604894
0.0606724
0.0608521
0.0610013
0.0610837
0.0610506
0.060838
0.060363
0.0595204
0.058181
0.0561926
0.0533887
0.0496065
0.0447199
0.0386875
0.0316099
0.0237822
0.0157
0.00802311
0.000539248
-0.00491346
-0.015835
-0.00923836
-0.00107051
0.00713566
0.0156641
0.0239525
0.0315341
0.0381156
0.0435762
0.0479308
0.0512819
0.0537758
0.05557
0.0568132
0.0576359
0.0581463
0.058432
0.0585614
0.0585878
0.0585516
0.0584831
0.058405
0.0583336
0.0582801
0.0582517
0.0582517
0.0582801
0.0583336
0.058405
0.0584831
0.0585516
0.0585878
0.0585614
0.058432
0.0581463
0.0576359
0.0568132
0.05557
0.0537758
0.0512819
0.0479308
0.0435762
0.0381156
0.0315341
0.0239525
0.0156641
0.00713566
-0.00107051
-0.00923836
-0.015835
-0.0251051
-0.0176137
-0.00892501
-0.000366859
0.00843976
0.017025
0.024958
0.0319525
0.0378709
0.0427025
0.0465252
0.0494661
0.0516704
0.0532809
0.0544261
0.0552156
0.0557397
0.0560705
0.0562647
0.0563659
0.0564077
0.0564149
0.0564058
0.0563931
0.0563847
0.0563847
0.0563931
0.0564058
0.0564149
0.0564077
0.0563659
0.0562647
0.0560705
0.0557397
0.0552156
0.0544261
0.0532809
0.0516704
0.0494661
0.0465252
0.0427025
0.0378709
0.0319525
0.024958
0.017025
0.00843976
-0.000366859
-0.00892501
-0.0176137
-0.0251051
-0.0328085
-0.0246629
-0.0156135
-0.00686187
0.002073
0.0108083
0.0189544
0.0262359
0.0325023
0.0377191
0.0419391
0.0452686
0.047838
0.0497813
0.0512229
0.0522719
0.0530195
0.0535403
0.0538935
0.0541258
0.0542729
0.0543618
0.0544126
0.0544391
0.0544501
0.0544501
0.0544391
0.0544126
0.0543618
0.0542729
0.0541258
0.0538935
0.0535403
0.0530195
0.0522719
0.0512229
0.0497813
0.047838
0.0452686
0.0419391
0.0377191
0.0325023
0.0262359
0.0189544
0.0108083
0.00207301
-0.00686187
-0.0156135
-0.0246629
-0.0328085
-0.0390357
-0.0304655
-0.0212096
-0.0124049
-0.0034739
0.00528188
0.0135164
0.020969
0.0274804
0.0329944
0.0375394
0.0411996
0.0440887
0.0463297
0.0480409
0.0493286
0.050284
0.0509827
0.051486
0.0518422
0.0520893
0.0522562
0.052364
0.0524279
0.0524575
0.0524575
0.0524279
0.052364
0.0522562
0.0520893
0.0518422
0.051486
0.0509827
0.050284
0.0493286
0.0480409
0.0463297
0.0440887
0.0411996
0.0375394
0.0329944
0.0274804
0.020969
0.0135164
0.00528188
-0.0034739
-0.0124049
-0.0212096
-0.0304655
-0.0390357
-0.0438846
-0.0351044
-0.0257878
-0.0170525
-0.00823972
0.000423244
0.00863514
0.0161535
0.0228137
0.0285413
0.033341
0.0372746
0.0404381
0.0429412
0.0448944
0.0463996
0.0475464
0.0484105
0.0490539
0.0495267
0.0498682
0.0501087
0.0502707
0.0503702
0.0504174
0.0504174
0.0503702
0.0502707
0.0501087
0.0498682
0.0495267
0.0490539
0.0484105
0.0475464
0.0463996
0.0448944
0.0429412
0.0404381
0.0372746
0.033341
0.0285413
0.0228137
0.0161535
0.00863514
0.000423244
-0.00823972
-0.0170525
-0.0257878
-0.0351044
-0.0438846
-0.0474607
-0.0386662
-0.0294238
-0.0208625
-0.012265
-0.00379185
0.00430002
0.0117889
0.0185092
0.0243711
0.0293577
0.0335088
0.0369012
0.0396306
0.0417977
0.0434986
0.0448198
0.045836
0.0466096
0.0471911
0.047621
0.0479308
0.0481438
0.0482768
0.0483407
0.0483407
0.0482768
0.0481438
0.0479308
0.047621
0.0471911
0.0466096
0.045836
0.0448198
0.0434986
0.0417977
0.0396306
0.0369012
0.0335088
0.0293577
0.0243711
0.0185092
0.0117889
0.00430002
-0.00379185
-0.012265
-0.0208625
-0.0294238
-0.0386662
-0.0474607
-0.0498769
-0.0412418
-0.0321943
-0.0238946
-0.0155922
-0.00739024
0.000497636
0.00787241
0.0145715
0.0204935
0.025602
0.0299158
0.0334924
0.0364121
0.0387646
0.0406389
0.0421171
0.0432719
0.0441649
0.044847
0.0453592
0.0457335
0.0459942
0.0461588
0.0462382
0.0462382
0.0461588
0.0459942
0.0457335
0.0453592
0.044847
0.0441649
0.0432719
0.0421171
0.0406389
0.0387646
0.0364121
0.0334924
0.0299158
0.025602
0.0204935
0.0145715
0.00787241
0.000497636
-0.00739024
-0.0155922
-0.0238946
-0.0321943
-0.0412418
-0.0498769
-0.0512511
-0.0429247
-0.0341772
-0.02621
-0.0182665
-0.0104016
-0.00278844
0.00439838
0.0110029
0.0169159
0.0220846
0.0265079
0.0302245
0.0332988
0.0358081
0.037833
0.0394504
0.0407299
0.0417315
0.0425058
0.0430937
0.0435279
0.0438329
0.0440267
0.0441207
0.0441207
0.0440267
0.0438329
0.0435279
0.0430937
0.0425058
0.0417315
0.0407299
0.0394504
0.037833
0.0358081
0.0332988
0.0302245
0.0265079
0.0220846
0.0169159
0.0110029
0.00439838
-0.00278844
-0.0104016
-0.0182665
-0.02621
-0.0341772
-0.0429247
-0.0512511
-0.0517037
-0.0438096
-0.0354502
-0.027871
-0.0203347
-0.0128583
-0.00557751
0.00135814
0.00780279
0.0136435
0.0188142
0.0232961
0.0271095
0.0303027
0.03294
0.0350928
0.0368313
0.0382212
0.0393204
0.0401781
0.0408353
0.0413242
0.0416701
0.0418909
0.0419983
0.0419983
0.0418909
0.0416701
0.0413242
0.0408353
0.0401781
0.0393204
0.0382212
0.0368313
0.0350928
0.03294
0.0303027
0.0271095
0.0232961
0.0188142
0.0136435
0.00780279
0.00135814
-0.00557751
-0.0128583
-0.0203347
-0.027871
-0.0354502
-0.0438096
-0.0517037
-0.0513558
-0.0439912
-0.0360902
-0.0289402
-0.0218454
-0.0147952
-0.00789213
-0.00126021
0.00496769
0.0106788
0.0157973
0.0202891
0.0241574
0.0274345
0.0301714
0.032429
0.0342704
0.0357563
0.0369417
0.0378742
0.0385937
0.0391325
0.0395156
0.0397611
0.0398809
0.0398809
0.0397611
0.0395156
0.0391325
0.0385937
0.0378742
0.0369417
0.0357563
0.0342704
0.032429
0.0301714
0.0274345
0.0241574
0.0202891
0.0157973
0.0106788
0.00496769
-0.00126021
-0.00789213
-0.0147952
-0.0218454
-0.0289402
-0.0360902
-0.0439912
-0.0513558
-0.0503259
-0.0435625
-0.0361726
-0.0294806
-0.0228495
-0.0162511
-0.0097593
-0.00347338
0.00248927
0.00801977
0.0130364
0.0174923
0.0213753
0.0247021
0.0275104
0.02985
0.031776
0.0333435
0.0346037
0.035602
0.0363772
0.0369607
0.0373774
0.0376452
0.0377762
0.0377762
0.0376452
0.0373774
0.0369607
0.0363772
0.035602
0.0346037
0.0333435
0.031776
0.02985
0.0275104
0.0247021
0.0213753
0.0174923
0.0130364
0.00801977
0.00248927
-0.00347338
-0.0097593
-0.0162511
-0.0228495
-0.0294806
-0.0361726
-0.0435625
-0.0503259
-0.0487275
-0.0426125
-0.03577
-0.0295538
-0.0233981
-0.0172663
-0.0112089
-0.0053015
0.000355663
0.00566111
0.0105307
0.0149081
0.0187674
0.0221111
0.0249631
0.0273621
0.0293546
0.0309892
0.0323129
0.0333682
0.0341921
0.0348152
0.0352618
0.0355497
0.0356907
0.0356907
0.0355497
0.0352618
0.0348152
0.0341921
0.0333682
0.0323129
0.0309892
0.0293546
0.0273621
0.0249631
0.0221111
0.0187674
0.0149081
0.0105307
0.00566111
0.000355663
-0.0053015
-0.0112089
-0.0172663
-0.0233981
-0.0295538
-0.03577
-0.0426125
-0.0487275
-0.0466663
-0.0412243
-0.0349503
-0.0292185
-0.0235411
-0.0178817
-0.0122721
-0.00676679
-0.00144733
0.00359507
0.00827744
0.0125369
0.0163366
0.0196653
0.0225343
0.0249706
0.0270116
0.028699
0.0300747
0.0311781
0.0320439
0.0327016
0.0331744
0.03348
0.0336299
0.0336299
0.03348
0.0331744
0.0327016
0.0320439
0.0311781
0.0300747
0.028699
0.0270116
0.0249706
0.0225343
0.0196653
0.0163366
0.0125369
0.00827744
0.00359507
-0.00144733
-0.00676679
-0.0122721
-0.0178817
-0.0235411
-0.0292185
-0.0349503
-0.0412243
-0.0466663
-0.0442387
-0.0394746
-0.0337768
-0.0285303
-0.0233274
-0.0181382
-0.012982
-0.00789392
-0.00293676
0.00181104
0.006271
0.010377
0.0140833
0.0173671
0.0202271
0.0226792
0.0247511
0.026477
0.0278936
0.0290362
0.0299371
0.0306241
0.0311196
0.0314406
0.0315982
0.0315982
0.0314406
0.0311196
0.0306241
0.0299371
0.0290362
0.0278936
0.026477
0.0247511
0.0226792
0.0202271
0.0173671
0.0140833
0.010377
0.006271
0.00181104
-0.00293676
-0.00789392
-0.012982
-0.0181382
-0.0233274
-0.0285303
-0.0337768
-0.0394746
-0.0442387
-0.0415303
-0.0374328
-0.0323076
-0.027541
-0.0228033
-0.0180767
-0.0133724
-0.00870945
-0.00413213
0.000295787
0.00450323
0.00842396
0.012006
0.0152165
0.0180429
0.0204898
0.0225754
0.0243261
0.0257723
0.0269454
0.0278748
0.028586
0.0291005
0.0294345
0.0295987
0.0295987
0.0294345
0.0291005
0.028586
0.0278748
0.0269454
0.0257723
0.0243261
0.0225754
0.0204898
0.0180429
0.0152165
0.012006
0.00842396
0.00450323
0.000295787
-0.00413213
-0.00870945
-0.0133724
-0.0180767
-0.0228033
-0.027541
-0.0323076
-0.0374328
-0.0415303
-0.0386151
-0.0351602
-0.030595
-0.0262983
-0.0220127
-0.0177364
-0.0134773
-0.00924119
-0.00505483
-0.000966168
0.0029637
0.0066713
0.010101
0.0132121
0.0159815
0.0184033
0.020486
0.0222477
0.0237128
0.0249079
0.0258589
0.0265894
0.0271194
0.027464
0.0276337
0.0276337
0.027464
0.0271194
0.0265894
0.0258589
0.0249079
0.0237128
0.0222477
0.020486
0.0184033
0.0159815
0.0132121
0.010101
0.0066713
0.0029637
-0.000966168
-0.00505483
-0.00924119
-0.0134773
-0.0177364
-0.0220127
-0.0262983
-0.030595
-0.0351602
-0.0386151
-0.0355542
-0.0327092
-0.0286853
-0.0248448
-0.0209961
-0.017155
-0.0133302
-0.00951758
-0.00572771
-0.00199216
0.00163995
0.0051106
0.00836311
0.0113507
0.0140412
0.016419
0.0184827
0.0202425
0.0217159
0.0229244
0.0238906
0.0246355
0.0251773
0.0255303
0.0257043
0.0257043
0.0255303
0.0251773
0.0246355
0.0238906
0.0229244
0.0217159
0.0202425
0.0184827
0.016419
0.0140412
0.0113507
0.00836311
0.0051106
0.00163995
-0.00199216
-0.00572771
-0.00951758
-0.0133302
-0.017155
-0.0209961
-0.0248448
-0.0286853
-0.0327092
-0.0355542
-0.0323968
-0.0301241
-0.0266185
-0.0232185
-0.0197903
-0.0163677
-0.0129636
-0.00956715
-0.00617454
-0.00280098
0.000517842
0.00373165
0.00678516
0.00962754
0.0122192
0.0145352
0.0165648
0.01831
0.0197814
0.0209953
0.0219702
0.0227245
0.0232746
0.0236337
0.023811
0.023811
0.0236337
0.0232746
0.0227245
0.0219702
0.0209953
0.0197814
0.01831
0.0165648
0.0145352
0.0122192
0.00962754
0.00678516
0.00373165
0.000517842
-0.00280098
-0.00617454
-0.00956715
-0.0129636
-0.0163677
-0.0197903
-0.0232185
-0.0266185
-0.0301241
-0.0323968
-0.0291807
-0.0274401
-0.0244283
-0.021452
-0.0184277
-0.0154066
-0.0124082
-0.00941797
-0.00641958
-0.00341255
-0.000418214
0.00252278
0.00535872
0.00803678
0.0105113
0.012749
0.0147304
0.016449
0.0179086
0.0191199
0.0200972
0.0208562
0.0214112
0.0217741
0.0219535
0.0219535
0.0217741
0.0214112
0.0208562
0.0200972
0.0191199
0.0179086
0.016449
0.0147304
0.012749
0.0105113
0.00803678
0.00535872
0.00252278
-0.000418214
-0.00341255
-0.00641958
-0.00941797
-0.0124082
-0.0154066
-0.0184277
-0.021452
-0.0244283
-0.0274401
-0.0291807
-0.0259342
-0.0246851
-0.0221421
-0.0195723
-0.0169364
-0.0143007
-0.0116929
-0.00909712
-0.00648706
-0.00384746
-0.0011849
0.001471
0.00407403
0.00657121
0.00891234
0.0110567
0.0129767
0.0146575
0.016096
0.017297
0.0182707
0.0190296
0.019586
0.0199505
0.0201309
0.0201309
0.0199505
0.019586
0.0190296
0.0182707
0.017297
0.016096
0.0146575
0.0129767
0.0110567
0.00891234
0.00657121
0.00407403
0.001471
-0.0011849
-0.00384746
-0.00648706
-0.00909712
-0.0116929
-0.0143007
-0.0169364
-0.0195723
-0.0221421
-0.0246851
-0.0259342
-0.0226791
-0.02188
-0.0197815
-0.0176014
-0.0153396
-0.0130749
-0.0108435
-0.0086302
-0.00640079
-0.00412662
-0.00179972
0.000562277
0.0029202
0.00522263
0.0074162
0.00945397
0.0113004
0.0129331
0.0143416
0.0155251
0.0164893
0.0172435
0.0177978
0.0181617
0.0183419
0.0183419
0.0181617
0.0177978
0.0172435
0.0164893
0.0155251
0.0143416
0.0129331
0.0113004
0.00945397
0.0074162
0.00522263
0.0029202
0.000562277
-0.00179972
-0.00412662
-0.00640079
-0.0086302
-0.0108435
-0.0130749
-0.0153396
-0.0176014
-0.0197815
-0.02188
-0.0226791
-0.0194342
-0.0190411
-0.0173629
-0.0155556
-0.0136556
-0.0117502
-0.00988316
-0.00804114
-0.00618398
-0.00427122
-0.00228096
-0.00021847
0.00188526
0.00398178
0.00601591
0.00793544
0.00969772
0.0112727
0.012643
0.0138021
0.0147511
0.0154961
0.016045
0.0164059
0.0165849
0.0165849
0.0164059
0.016045
0.0154961
0.0147511
0.0138021
0.012643
0.0112727
0.00969772
0.00793544
0.00601591
0.00398178
0.00188526
-0.00021847
-0.00228096
-0.00427122
-0.00618398
-0.00804114
-0.00988316
-0.0117502
-0.0136556
-0.0155556
-0.0173629
-0.0190411
-0.0194342
-0.0162199
-0.0161825
-0.0148991
-0.0134476
-0.011899
-0.0103443
-0.0088328
-0.00735291
-0.00585993
-0.00430329
-0.00264824
-0.000887844
0.000955728
0.00283809
0.00470339
0.00649509
0.00816404
0.009673
0.0109978
0.012126
0.0130543
0.0137856
0.0143258
0.0146814
0.0148579
0.0148579
0.0146814
0.0143258
0.0137856
0.0130543
0.012126
0.0109978
0.009673
0.00816404
0.00649509
0.00470339
0.00283809
0.000955728
-0.000887844
-0.00264824
-0.00430329
-0.00585993
-0.00735291
-0.0088328
-0.0103443
-0.011899
-0.0134476
-0.0148991
-0.0161825
-0.0162199
-0.0130633
-0.013319
-0.0123998
-0.0112851
-0.0100783
-0.00886912
-0.00770815
-0.00658429
-0.00544892
-0.00424288
-0.00291998
-0.00146177
0.000118497
0.00178115
0.00347057
0.00512669
0.0066945
0.00812993
0.00940219
0.0104932
0.0113954
0.0121083
0.012636
0.0129838
0.0131566
0.0131566
0.0129838
0.012636
0.0121083
0.0113954
0.0104932
0.00940219
0.00812993
0.0066945
0.00512669
0.00347057
0.00178115
0.000118497
-0.00146177
-0.00291998
-0.00424288
-0.00544892
-0.00658429
-0.00770815
-0.00886912
-0.0100783
-0.0112851
-0.0123998
-0.013319
-0.0130633
-0.0100004
-0.0104628
-0.00986099
-0.00905466
-0.00817548
-0.00730695
-0.0064949
-0.0057255
-0.00494539
-0.00408762
-0.00309581
-0.00194098
-0.000627747
0.000809261
0.00231529
0.00382748
0.00528553
0.00663898
0.00785071
0.0088972
0.0097666
0.0104557
0.0109665
0.0113034
0.0114708
0.0114708
0.0113034
0.0109665
0.0104557
0.0097666
0.0088972
0.00785071
0.00663898
0.00528553
0.00382748
0.00231529
0.000809261
-0.000627747
-0.00194098
-0.00309581
-0.00408762
-0.00494539
-0.0057255
-0.0064949
-0.00730695
-0.00817548
-0.00905466
-0.00986099
-0.0104628
-0.0100004
-0.00707635
-0.00761569
-0.00724879
-0.00670069
-0.00612426
-0.00559041
-0.00513154
-0.0047247
-0.00430853
-0.00380737
-0.00315504
-0.00231255
-0.00127609
-7.49879e-05
0.00123744
0.00259612
0.00393585
0.00519993
0.00634487
0.00734156
0.00817382
0.00883544
0.00932668
0.00965097
0.00981233
0.00981233
0.00965097
0.00932668
0.00883544
0.00817382
0.00734156
0.00634487
0.00519993
0.00393585
0.00259612
0.00123744
-7.4988e-05
-0.00127609
-0.00231255
-0.00315504
-0.00380737
-0.00430853
-0.0047247
-0.00513154
-0.00559041
-0.00612426
-0.00670069
-0.00724879
-0.00761569
-0.00707635
-0.00436845
-0.00482515
-0.00460264
-0.00428434
-0.00402218
-0.00385902
-0.00379721
-0.00379219
-0.00376763
-0.00363695
-0.00332498
-0.00278501
-0.00200721
-0.00101775
0.000129628
0.00136584
0.00261897
0.00382429
0.00493036
0.00590136
0.00671616
0.00736544
0.00784796
0.00816666
0.00832555
0.00832555
0.00816666
0.00784796
0.00736544
0.00671616
0.00590136
0.00493036
0.00382429
0.00261897
0.00136584
0.000129628
-0.00101775
-0.00200721
-0.00278501
-0.00332498
-0.00363695
-0.00376763
-0.00379219
-0.00379721
-0.00385902
-0.00402218
-0.00428434
-0.00460264
-0.00482515
-0.00436845
-0.00208333
-0.00243041
-0.00245759
-0.00255045
-0.00279858
-0.00318245
-0.0036479
-0.00411222
-0.00447829
-0.00465245
-0.00456172
-0.00416705
-0.00346926
-0.00250685
-0.00134693
-7.22265e-05
0.00123233
0.00249088
0.00364381
0.0046506
0.00548886
0.00615068
0.00663783
0.00695675
0.00711447
0.00711447
0.00695675
0.00663783
0.00615068
0.00548886
0.0046506
0.00364381
0.00249088
0.00123233
-7.22265e-05
-0.00134693
-0.00250685
-0.00346926
-0.00416705
-0.00456172
-0.00465245
-0.00447829
-0.00411222
-0.0036479
-0.00318245
-0.00279858
-0.00255045
-0.00245759
-0.00243041
-0.00208333
-0.000601369
-0.00114324
-0.00182785
-0.00265972
-0.00359125
-0.00453947
-0.00541384
-0.00612021
-0.00657014
-0.00669482
-0.00645893
-0.00586946
-0.0049758
-0.00386055
-0.00262362
-0.00136471
-0.000168612
0.000903559
0.00181667
0.0025587
0.00313479
0.00356043
0.00385513
0.00403753
0.00412219
0.00412219
0.00403753
0.00385513
0.00356043
0.00313479
0.0025587
0.00181667
0.000903559
-0.000168612
-0.00136471
-0.00262362
-0.00386055
-0.0049758
-0.00586946
-0.00645893
-0.00669482
-0.00657014
-0.00612021
-0.00541384
-0.00453947
-0.00359125
-0.00265972
-0.00182785
-0.00114324
-0.000601369
)
;

boundaryField
{
    left
    {
        type            zeroGradient;
    }
    right
    {
        type            zeroGradient;
    }
    up
    {
        type            fixedValue;
        value           uniform 0;
    }
    down
    {
        type            zeroGradient;
    }
    frontAndBack
    {
        type            empty;
    }
}


// ************************************************************************* //
