/*--------------------------------*- C++ -*----------------------------------*\
  =========                 |
  \\      /  F ield         | OpenFOAM: The Open Source CFD Toolbox
   \\    /   O peration     | Website:  https://openfoam.org
    \\  /    A nd           | Version:  6
     \\/     M anipulation  |
\*---------------------------------------------------------------------------*/
FoamFile
{
    version     2.0;
    format      ascii;
    class       volVectorField;
    location    "3200";
    object      U;
}
// * * * * * * * * * * * * * * * * * * * * * * * * * * * * * * * * * * * * * //

dimensions      [0 1 -1 0 0 0 0];

internalField   nonuniform List<vector> 
2500
(
(0.0827876 0.352426 0)
(0.168006 0.387515 0)
(0.115599 0.394087 1.13556e-18)
(0.0770915 0.397914 -1.13689e-18)
(0.0551263 0.399081 -6.46952e-19)
(0.0402712 0.399446 6.48552e-19)
(0.0299305 0.399637 -4.31425e-19)
(0.0226393 0.399751 4.32673e-19)
(0.0173806 0.399822 3.1888e-19)
(0.0135186 0.399871 -3.1982e-19)
(0.0106383 0.399905 0)
(0.00845873 0.399931 1.14872e-19)
(0.00678638 0.399951 -1.15189e-19)
(0.00548546 0.399966 9.80433e-20)
(0.00445933 0.399977 -1.90172e-19)
(0.0036383 0.399987 5.28101e-21)
(0.00297152 0.399994 1.69696e-19)
(0.00242137 0.4 -8.28546e-20)
(0.00195972 0.400005 0)
(0.00156519 0.400009 0)
(0.00122124 0.400012 3.6319e-20)
(0.000914859 0.400014 -3.63796e-20)
(0.000635493 0.400015 1.76307e-20)
(0.000374315 0.400016 -8.89873e-21)
(0.000123627 0.400017 -8.76738e-21)
(-0.000123627 0.400017 -8.76738e-21)
(-0.000374315 0.400016 -8.89873e-21)
(-0.000635493 0.400015 1.76307e-20)
(-0.000914859 0.400014 -3.63796e-20)
(-0.00122124 0.400012 3.6319e-20)
(-0.00156519 0.400009 0)
(-0.00195972 0.400005 0)
(-0.00242137 0.4 -8.28546e-20)
(-0.00297152 0.399994 1.69696e-19)
(-0.0036383 0.399987 5.28101e-21)
(-0.00445933 0.399977 -1.90172e-19)
(-0.00548546 0.399966 9.80433e-20)
(-0.00678638 0.399951 -1.15189e-19)
(-0.00845873 0.399931 1.14872e-19)
(-0.0106383 0.399905 0)
(-0.0135186 0.399871 -3.1982e-19)
(-0.0173806 0.399822 3.1888e-19)
(-0.0226393 0.399751 4.32673e-19)
(-0.0299305 0.399637 -4.31425e-19)
(-0.0402712 0.399446 6.48552e-19)
(-0.0551263 0.399081 -6.46952e-19)
(-0.0770915 0.397914 -1.13689e-18)
(-0.115599 0.394087 1.13556e-18)
(-0.168006 0.387515 0)
(-0.0827876 0.352426 3.89336e-18)
(0.17342 0.412393 0)
(0.333955 0.440815 -1.88963e-18)
(0.254132 0.431254 1.9074e-18)
(0.188755 0.422664 0)
(0.143303 0.415797 0)
(0.108637 0.411022 0)
(0.0829179 0.407834 0)
(0.0639123 0.405665 0)
(0.0497412 0.404159 0)
(0.0390843 0.403097 0)
(0.0309943 0.402337 -1.70181e-19)
(0.0247899 0.401787 1.70771e-19)
(0.0199798 0.401385 0)
(0.0162075 0.401088 0)
(0.0132128 0.400866 0)
(0.0108043 0.4007 0)
(0.00884011 0.400574 0)
(0.00721386 0.400479 5.41522e-20)
(0.00584528 0.400407 -5.42994e-20)
(0.00467282 0.400352 0)
(0.00364864 0.400311 4.97891e-20)
(0.00273481 0.400281 -4.98987e-20)
(0.00190046 0.40026 2.42083e-20)
(0.0011197 0.400246 -2.42526e-20)
(0.000369858 0.40024 0)
(-0.000369858 0.40024 0)
(-0.0011197 0.400246 -2.42526e-20)
(-0.00190046 0.40026 2.42083e-20)
(-0.00273481 0.400281 -4.98987e-20)
(-0.00364864 0.400311 4.97891e-20)
(-0.00467282 0.400352 0)
(-0.00584528 0.400407 -5.42994e-20)
(-0.00721386 0.400479 5.41522e-20)
(-0.00884011 0.400574 0)
(-0.0108043 0.4007 0)
(-0.0132128 0.400866 0)
(-0.0162075 0.401088 0)
(-0.0199798 0.401385 0)
(-0.0247899 0.401787 1.70771e-19)
(-0.0309943 0.402337 -1.70181e-19)
(-0.0390843 0.403097 0)
(-0.0497412 0.404159 0)
(-0.0639123 0.405665 0)
(-0.0829179 0.407834 0)
(-0.108637 0.411022 0)
(-0.143303 0.415797 0)
(-0.188755 0.422664 0)
(-0.254132 0.431254 1.9074e-18)
(-0.333955 0.440815 -1.88963e-18)
(-0.17342 0.412393 0)
(0.200789 0.399094 0)
(0.393765 0.455821 0)
(0.329588 0.458708 0)
(0.265766 0.448217 0)
(0.210995 0.436544 0)
(0.164776 0.427164 0)
(0.128562 0.420168 0)
(0.100685 0.415044 0)
(0.0792907 0.411304 0)
(0.062862 0.408568 0)
(0.0501929 0.406556 0)
(0.0403589 0.405069 0)
(0.0326631 0.403962 0)
(0.0265831 0.403133 0)
(0.0217278 0.402508 0)
(0.0178043 0.402035 0)
(0.0145919 0.401675 0)
(0.0119237 0.4014 0)
(0.00967209 0.40119 0)
(0.00773879 0.40103 0)
(0.00604678 0.40091 0)
(0.00453469 0.400822 0)
(0.00315243 0.40076 0)
(0.00185779 0.40072 0)
(0.000613737 0.400701 0)
(-0.000613737 0.400701 0)
(-0.00185779 0.40072 0)
(-0.00315243 0.40076 0)
(-0.00453469 0.400822 0)
(-0.00604678 0.40091 0)
(-0.00773879 0.40103 0)
(-0.00967209 0.40119 0)
(-0.0119237 0.4014 0)
(-0.0145919 0.401675 0)
(-0.0178043 0.402035 0)
(-0.0217278 0.402508 0)
(-0.0265831 0.403133 0)
(-0.0326631 0.403962 0)
(-0.0403589 0.405069 0)
(-0.0501929 0.406556 0)
(-0.062862 0.408568 0)
(-0.0792907 0.411304 0)
(-0.100685 0.415044 0)
(-0.128562 0.420168 0)
(-0.164776 0.427164 0)
(-0.210995 0.436544 0)
(-0.265766 0.448217 0)
(-0.329588 0.458708 0)
(-0.393765 0.455821 0)
(-0.200789 0.399094 0)
(0.198581 0.355766 4.14269e-19)
(0.401704 0.450226 1.94277e-18)
(0.367312 0.478443 0)
(0.316596 0.472841 0)
(0.261087 0.459311 0)
(0.209629 0.44635 -6.30795e-19)
(0.167022 0.435642 6.33768e-19)
(0.13285 0.427277 4.7026e-19)
(0.105857 0.420898 -4.71729e-19)
(0.084685 0.416081 0)
(0.0680934 0.412455 -1.68513e-19)
(0.0550538 0.409723 1.69063e-19)
(0.0447497 0.407661 -1.42969e-19)
(0.0365458 0.406099 1.43425e-19)
(0.0299536 0.404911 0)
(0.0245994 0.404005 0)
(0.0201974 0.40331 0)
(0.0165282 0.402778 0)
(0.0134229 0.402369 5.31761e-20)
(0.01075 0.402058 -5.33054e-20)
(0.00840588 0.401823 0)
(0.00630745 0.401649 -2.49461e-20)
(0.00438663 0.401528 2.49934e-20)
(0.00258582 0.40145 0)
(0.000854363 0.401413 0)
(-0.000854362 0.401413 0)
(-0.00258582 0.40145 0)
(-0.00438663 0.401528 2.49934e-20)
(-0.00630745 0.401649 -2.49461e-20)
(-0.00840588 0.401823 0)
(-0.01075 0.402058 -5.33054e-20)
(-0.0134229 0.402369 5.31761e-20)
(-0.0165282 0.402778 0)
(-0.0201974 0.40331 0)
(-0.0245994 0.404005 0)
(-0.0299536 0.404911 0)
(-0.0365458 0.406099 1.43425e-19)
(-0.0447497 0.407661 -1.42969e-19)
(-0.0550538 0.409723 1.69063e-19)
(-0.0680934 0.412455 -1.68513e-19)
(-0.084685 0.416081 0)
(-0.105857 0.420898 -4.71729e-19)
(-0.13285 0.427277 4.7026e-19)
(-0.167022 0.435642 6.33768e-19)
(-0.209629 0.44635 -6.30795e-19)
(-0.261087 0.459311 0)
(-0.316596 0.472841 0)
(-0.367312 0.478443 0)
(-0.401704 0.450226 1.94277e-18)
(-0.198581 0.355766 -4.03735e-18)
(0.184532 0.313447 -1.80501e-18)
(0.38509 0.440955 1.19633e-18)
(0.380983 0.493144 -1.90464e-19)
(0.347021 0.495047 -9.9737e-19)
(0.296217 0.482129 -6.90803e-19)
(0.244277 0.46694 1.04451e-19)
(0.198621 0.453063 6.01146e-19)
(0.160424 0.44155 -4.56236e-19)
(0.12935 0.432402 8.6384e-19)
(0.104438 0.425283 -4.0741e-19)
(0.0845865 0.419801 0)
(0.0687819 0.4156 1.5322e-19)
(0.0561644 0.412385 -1.53724e-19)
(0.0460363 0.409923 1.3329e-19)
(0.0378438 0.408034 -2.59541e-19)
(0.0311537 0.406582 1.26213e-19)
(0.0256284 0.405463 1.14571e-19)
(0.0210056 0.4046 -1.14881e-19)
(0.0170809 0.403936 0)
(0.0136935 0.403428 -5.21211e-20)
(0.0107162 0.403043 1.03298e-19)
(0.00804597 0.40276 -5.11652e-20)
(0.00559822 0.40256 2.48755e-20)
(0.00330098 0.402433 -1.25498e-20)
(0.00109081 0.402371 -1.23842e-20)
(-0.00109081 0.402371 -1.23842e-20)
(-0.00330098 0.402433 -1.25498e-20)
(-0.00559822 0.40256 2.48755e-20)
(-0.00804597 0.40276 -5.11652e-20)
(-0.0107162 0.403043 1.03298e-19)
(-0.0136935 0.403428 -5.21211e-20)
(-0.0170809 0.403936 0)
(-0.0210056 0.4046 -1.14881e-19)
(-0.0256284 0.405463 1.14571e-19)
(-0.0311537 0.406582 1.26213e-19)
(-0.0378438 0.408034 -2.59541e-19)
(-0.0460363 0.409923 1.3329e-19)
(-0.0561644 0.412385 -1.53724e-19)
(-0.0687819 0.4156 1.5322e-19)
(-0.0845865 0.419801 0)
(-0.104438 0.425283 -4.0741e-19)
(-0.12935 0.432402 8.6384e-19)
(-0.160424 0.44155 -4.56236e-19)
(-0.198621 0.453063 6.01146e-19)
(-0.244277 0.46694 1.04451e-19)
(-0.296217 0.482129 -6.90803e-19)
(-0.347021 0.495047 -9.9737e-19)
(-0.380983 0.493144 -1.90464e-19)
(-0.38509 0.440955 1.19633e-18)
(-0.184532 0.313447 1.80501e-18)
(0.166054 0.277279 0)
(0.35769 0.430337 0)
(0.379229 0.502253 0)
(0.362003 0.513278 -7.40041e-19)
(0.319079 0.503325 1.38447e-18)
(0.26996 0.487494 -6.44905e-19)
(0.223854 0.471331 4.92795e-19)
(0.183558 0.457068 -9.36541e-19)
(0.149769 0.445258 8.36081e-19)
(0.122064 0.435791 -7.53994e-19)
(0.0996014 0.428337 5.23056e-19)
(0.0814752 0.422526 -1.64453e-19)
(0.0668486 0.418017 -1.41193e-19)
(0.055006 0.414527 1.41654e-19)
(0.0453592 0.411824 1.25571e-19)
(0.0374357 0.409732 -1.25946e-19)
(0.0308601 0.40811 0)
(0.0253363 0.406853 -5.53693e-20)
(0.0206306 0.405882 1.78586e-21)
(0.0165574 0.405136 5.3848e-20)
(0.0129686 0.404571 5.1375e-20)
(0.00974361 0.404153 -7.67832e-20)
(0.00678267 0.403858 5.04024e-20)
(0.00400064 0.40367 -1.26341e-20)
(0.00132222 0.403578 -1.24726e-20)
(-0.00132222 0.403578 -1.24726e-20)
(-0.00400064 0.40367 -1.26341e-20)
(-0.00678267 0.403858 5.04024e-20)
(-0.00974361 0.404153 -7.67832e-20)
(-0.0129686 0.404571 5.1375e-20)
(-0.0165574 0.405136 5.3848e-20)
(-0.0206306 0.405882 1.78586e-21)
(-0.0253363 0.406853 -5.53693e-20)
(-0.0308601 0.40811 0)
(-0.0374357 0.409732 -1.25946e-19)
(-0.0453592 0.411824 1.25571e-19)
(-0.055006 0.414527 1.41654e-19)
(-0.0668486 0.418017 -1.41193e-19)
(-0.0814752 0.422526 -1.64453e-19)
(-0.0996014 0.428337 5.23056e-19)
(-0.122064 0.435791 -7.53994e-19)
(-0.149769 0.445258 8.36081e-19)
(-0.183558 0.457068 -9.36541e-19)
(-0.223854 0.471331 4.92795e-19)
(-0.26996 0.487494 -6.44905e-19)
(-0.319079 0.503325 1.38447e-18)
(-0.362003 0.513278 -7.40041e-19)
(-0.379229 0.502253 0)
(-0.35769 0.430337 0)
(-0.166054 0.277279 0)
(0.146943 0.246688 0)
(0.326979 0.418285 0)
(0.368147 0.506068 -7.82601e-19)
(0.365827 0.527216 7.8092e-19)
(0.332189 0.522075 5.84809e-19)
(0.287943 0.507092 -5.91622e-19)
(0.243306 0.489646 4.64773e-19)
(0.202491 0.473206 -5.02772e-20)
(0.167184 0.459004 -4.23312e-19)
(0.137554 0.447275 3.48668e-19)
(0.113099 0.437831 -5.10715e-19)
(0.0930875 0.43034 3.10481e-19)
(0.0767579 0.424449 -1.00684e-20)
(0.0634161 0.419836 -8.45213e-21)
(0.0524672 0.416234 -7.10277e-21)
(0.0434186 0.413423 -5.9655e-21)
(0.0358709 0.411232 -1.1978e-19)
(0.029503 0.409525 -5.54637e-20)
(0.0240583 0.408201 5.56011e-20)
(0.0193309 0.407181 5.26175e-20)
(0.0151549 0.406405 -5.27283e-20)
(0.0113942 0.40583 -2.54471e-20)
(0.00793575 0.405424 2.54906e-20)
(0.00468232 0.405164 0)
(0.00154778 0.405038 0)
(-0.00154778 0.405038 0)
(-0.00468232 0.405164 0)
(-0.00793575 0.405424 2.54906e-20)
(-0.0113942 0.40583 -2.54471e-20)
(-0.0151549 0.406405 -5.27283e-20)
(-0.0193309 0.407181 5.26175e-20)
(-0.0240583 0.408201 5.56011e-20)
(-0.029503 0.409525 -5.54637e-20)
(-0.0358709 0.411232 -1.1978e-19)
(-0.0434186 0.413423 -5.9655e-21)
(-0.0524672 0.416234 -7.10277e-21)
(-0.0634161 0.419836 -8.45213e-21)
(-0.0767579 0.424449 -1.00684e-20)
(-0.0930875 0.43034 3.10481e-19)
(-0.113099 0.437831 -5.10715e-19)
(-0.137554 0.447275 3.48668e-19)
(-0.167184 0.459004 -4.23312e-19)
(-0.202491 0.473206 -5.02772e-20)
(-0.243306 0.489646 4.64773e-19)
(-0.287943 0.507092 -5.91622e-19)
(-0.332189 0.522075 5.84809e-19)
(-0.365827 0.527216 7.8092e-19)
(-0.368147 0.506068 -7.82601e-19)
(-0.326979 0.418285 0)
(-0.146943 0.246688 0)
(0.129236 0.221356 -1.09292e-19)
(0.296826 0.405581 -9.47114e-19)
(0.35182 0.505855 -6.93833e-19)
(0.36184 0.537315 1.29141e-18)
(0.337678 0.538132 -1.1399e-18)
(0.29941 0.525216 5.92347e-20)
(0.257592 0.507459 4.87071e-19)
(0.217512 0.489483 3.98777e-19)
(0.181708 0.47326 -4.02964e-19)
(0.150934 0.459449 0)
(0.125067 0.448076 0)
(0.10359 0.438897 0)
(0.0858598 0.431577 1.37829e-19)
(0.0712359 0.425783 -2.68762e-19)
(0.0591407 0.421216 6.65343e-21)
(0.0490798 0.417626 1.24601e-19)
(0.0406418 0.414809 0)
(0.0334901 0.412604 0)
(0.0273514 0.410886 0)
(0.0220041 0.409558 -5.27607e-20)
(0.0172673 0.408545 5.2869e-20)
(0.0129921 0.407792 -2.5556e-20)
(0.00905353 0.40726 2.5598e-20)
(0.00534373 0.40692 0)
(0.00176672 0.406754 0)
(-0.00176672 0.406754 0)
(-0.00534373 0.40692 0)
(-0.00905353 0.40726 2.5598e-20)
(-0.0129921 0.407792 -2.5556e-20)
(-0.0172673 0.408545 5.2869e-20)
(-0.0220041 0.409558 -5.27607e-20)
(-0.0273514 0.410886 0)
(-0.0334901 0.412604 0)
(-0.0406418 0.414809 0)
(-0.0490798 0.417626 1.24601e-19)
(-0.0591407 0.421216 6.65342e-21)
(-0.0712359 0.425783 -2.68762e-19)
(-0.0858598 0.431577 1.37829e-19)
(-0.10359 0.438897 0)
(-0.125067 0.448076 0)
(-0.150934 0.459449 0)
(-0.181708 0.47326 -4.02964e-19)
(-0.217512 0.489483 3.98777e-19)
(-0.257592 0.507459 4.87071e-19)
(-0.29941 0.525216 5.92347e-20)
(-0.337678 0.538132 -1.1399e-18)
(-0.36184 0.537315 1.29141e-18)
(-0.35182 0.505855 -6.93833e-19)
(-0.296826 0.405581 -9.47114e-19)
(-0.129236 0.221356 1.90243e-18)
(0.113718 0.200855 0)
(0.268896 0.392996 0)
(0.332786 0.502867 0)
(0.352501 0.544185 0)
(0.337278 0.551512 0)
(0.305428 0.541584 0)
(0.267319 0.524386 0)
(0.228938 0.505525 0)
(0.193488 0.487708 0)
(0.16226 0.472063 0)
(0.135512 0.458884 0)
(0.112969 0.448059 -1.43514e-19)
(0.0941327 0.439305 1.44086e-19)
(0.078442 0.432298 0)
(0.0653578 0.426723 0)
(0.0543997 0.422307 0)
(0.0451563 0.418821 1.1419e-19)
(0.0372839 0.416078 -1.14491e-19)
(0.0304988 0.413931 0)
(0.0245679 0.412264 0)
(0.0192989 0.41099 5.19301e-20)
(0.0145321 0.410042 -5.20227e-20)
(0.0101323 0.409369 2.54038e-20)
(0.00598269 0.408939 -1.27982e-20)
(0.00197833 0.408729 -1.26537e-20)
(-0.00197833 0.408729 -1.26537e-20)
(-0.00598269 0.408939 -1.27982e-20)
(-0.0101323 0.409369 2.54038e-20)
(-0.0145321 0.410042 -5.20227e-20)
(-0.0192989 0.41099 5.19301e-20)
(-0.0245679 0.412264 0)
(-0.0304988 0.413931 0)
(-0.0372839 0.416078 -1.14491e-19)
(-0.0451563 0.418821 1.1419e-19)
(-0.0543997 0.422307 0)
(-0.0653578 0.426723 0)
(-0.078442 0.432298 0)
(-0.0941327 0.439305 1.44086e-19)
(-0.112969 0.448059 -1.43514e-19)
(-0.135512 0.458884 0)
(-0.16226 0.472063 0)
(-0.193488 0.487708 0)
(-0.228938 0.505525 0)
(-0.267319 0.524386 0)
(-0.305428 0.541584 0)
(-0.337278 0.551512 0)
(-0.352501 0.544185 0)
(-0.332786 0.502867 0)
(-0.268896 0.392996 0)
(-0.113718 0.200855 0)
(0.10044 0.184442 6.49639e-19)
(0.243646 0.380927 -1.29581e-18)
(0.312551 0.498037 4.63358e-20)
(0.339571 0.548392 5.33539e-19)
(0.33237 0.56236 0)
(0.306931 0.556071 0)
(0.273064 0.54017 -3.80091e-19)
(0.237092 0.521048 2.92602e-20)
(0.20269 0.502086 2.60261e-20)
(0.171608 0.4849 3.36652e-19)
(0.14446 0.470085 -1.48058e-19)
(0.121224 0.457698 1.48883e-19)
(0.101564 0.44754 1.33089e-19)
(0.0850179 0.439315 -2.60623e-19)
(0.0711015 0.432709 1.27467e-19)
(0.0593625 0.427436 -1.17361e-19)
(0.0494004 0.423246 4.12082e-21)
(0.0408725 0.419931 5.86773e-20)
(0.0334905 0.417325 1.09211e-19)
(0.0270142 0.415295 -1.06806e-19)
(0.0212432 0.413739 1.04878e-19)
(0.0160091 0.412577 -5.20554e-20)
(0.0111688 0.411752 2.54533e-20)
(0.00659721 0.411224 -1.28177e-20)
(0.00218195 0.410966 -1.26804e-20)
(-0.00218195 0.410966 -1.26804e-20)
(-0.00659721 0.411224 -1.28177e-20)
(-0.0111688 0.411752 2.54533e-20)
(-0.0160091 0.412577 -5.20554e-20)
(-0.0212432 0.413739 1.04878e-19)
(-0.0270142 0.415295 -1.06806e-19)
(-0.0334905 0.417325 1.09211e-19)
(-0.0408725 0.419931 5.86773e-20)
(-0.0494004 0.423246 4.12082e-21)
(-0.0593625 0.427436 -1.17361e-19)
(-0.0711015 0.432709 1.27467e-19)
(-0.0850179 0.439315 -2.60623e-19)
(-0.101564 0.44754 1.33089e-19)
(-0.121224 0.457698 1.48883e-19)
(-0.14446 0.470085 -1.48058e-19)
(-0.171608 0.4849 3.36652e-19)
(-0.20269 0.502086 2.60261e-20)
(-0.237092 0.521048 2.92602e-20)
(-0.273064 0.54017 -3.80091e-19)
(-0.306931 0.556071 0)
(-0.33237 0.56236 0)
(-0.339571 0.548392 5.33539e-19)
(-0.312551 0.498037 4.63358e-20)
(-0.243646 0.380927 -1.29581e-18)
(-0.10044 0.184442 6.49639e-19)
(0.0891274 0.171292 0)
(0.220956 0.36953 0)
(0.291975 0.492023 4.74246e-19)
(0.32428 0.550424 -4.66533e-19)
(0.324033 0.570884 0)
(0.304724 0.568651 3.74184e-19)
(0.27536 0.55465 -3.77546e-19)
(0.242297 0.535835 3.33237e-19)
(0.209495 0.516182 -6.52763e-19)
(0.179067 0.497774 3.19146e-19)
(0.15195 0.481529 1.42833e-19)
(0.128366 0.467699 -1.43909e-19)
(0.108151 0.456194 0)
(0.0909529 0.44677 1.24892e-19)
(0.0763587 0.439129 -1.25336e-19)
(0.0639552 0.432981 0)
(0.0533622 0.428062 1.12747e-19)
(0.0442453 0.424151 -1.67956e-19)
(0.0363176 0.421061 5.50429e-20)
(0.0293357 0.418646 0)
(0.0230943 0.416788 0)
(0.0174189 0.415398 0)
(0.0121598 0.414409 2.54625e-20)
(0.00718544 0.413775 -1.28166e-20)
(0.00237697 0.413465 -1.26871e-20)
(-0.00237697 0.413465 -1.26871e-20)
(-0.00718544 0.413775 -1.28166e-20)
(-0.0121598 0.414409 2.54625e-20)
(-0.0174189 0.415398 0)
(-0.0230943 0.416788 0)
(-0.0293357 0.418646 0)
(-0.0363176 0.421061 5.50429e-20)
(-0.0442453 0.424151 -1.67956e-19)
(-0.0533622 0.428062 1.12747e-19)
(-0.0639552 0.432981 0)
(-0.0763587 0.439129 -1.25336e-19)
(-0.0909529 0.44677 1.24892e-19)
(-0.108151 0.456194 0)
(-0.128366 0.467699 -1.43909e-19)
(-0.15195 0.481529 1.42833e-19)
(-0.179067 0.497774 3.19146e-19)
(-0.209495 0.516182 -6.52763e-19)
(-0.242297 0.535835 3.33237e-19)
(-0.27536 0.55465 -3.77546e-19)
(-0.304724 0.568651 3.74184e-19)
(-0.324033 0.570884 0)
(-0.32428 0.550424 -4.66533e-19)
(-0.291975 0.492023 4.74246e-19)
(-0.220956 0.36953 0)
(-0.0891274 0.171292 0)
(0.079409 0.160669 0)
(0.200477 0.358842 0)
(0.271523 0.485265 0)
(0.307473 0.550676 0)
(0.313101 0.577302 0)
(0.299483 0.579358 -3.40877e-19)
(0.274686 0.56773 3.4347e-19)
(0.244861 0.549729 0)
(0.214086 0.529822 -1.49123e-19)
(0.184739 0.510526 2.93658e-19)
(0.158032 0.493079 -2.81582e-19)
(0.134415 0.477953 1.38409e-19)
(0.113895 0.465185 0)
(0.0962417 0.454602 0)
(0.0811206 0.445938 0)
(0.0681677 0.438909 0)
(0.0570318 0.433249 0)
(0.0473935 0.428722 -5.45228e-20)
(0.0389723 0.425129 1.08061e-19)
(0.031526 0.422309 -5.35213e-20)
(0.0248471 0.420134 0)
(0.0187574 0.418503 -2.56152e-20)
(0.0131025 0.41734 2.56487e-20)
(0.00774569 0.416593 0)
(0.00256283 0.416228 0)
(-0.00256283 0.416228 0)
(-0.00774569 0.416593 0)
(-0.0131025 0.41734 2.56487e-20)
(-0.0187574 0.418503 -2.56152e-20)
(-0.0248471 0.420134 0)
(-0.031526 0.422309 -5.35213e-20)
(-0.0389723 0.425129 1.08061e-19)
(-0.0473935 0.428722 -5.45228e-20)
(-0.0570318 0.433249 0)
(-0.0681677 0.438909 0)
(-0.0811206 0.445938 0)
(-0.0962417 0.454602 0)
(-0.113895 0.465185 0)
(-0.134415 0.477953 1.38409e-19)
(-0.158032 0.493079 -2.81582e-19)
(-0.184739 0.510526 2.93658e-19)
(-0.214086 0.529822 -1.49123e-19)
(-0.244861 0.549729 0)
(-0.274686 0.56773 3.4347e-19)
(-0.299483 0.579358 -3.40877e-19)
(-0.313101 0.577302 0)
(-0.307473 0.550676 0)
(-0.271523 0.485265 0)
(-0.200477 0.358842 0)
(-0.079409 0.160669 0)
(0.0709225 0.151965 4.14368e-19)
(0.181809 0.348814 0)
(0.25142 0.478025 3.57103e-19)
(0.289715 0.549438 -3.49555e-19)
(0.300207 0.581812 0)
(0.29177 0.588253 3.08825e-19)
(0.27147 0.579359 -3.10719e-19)
(0.245075 0.562615 0)
(0.216646 0.542869 1.40282e-19)
(0.188732 0.523019 -1.41731e-19)
(0.162763 0.504618 0)
(0.139396 0.488361 0)
(0.118805 0.474435 0)
(0.100884 0.462752 1.19684e-19)
(0.0853816 0.453092 -1.20256e-19)
(0.0719926 0.44519 0)
(0.0604013 0.438782 5.52022e-20)
(0.0503095 0.433628 -5.53436e-20)
(0.0414479 0.429518 0)
(0.0335792 0.42628 -5.21954e-20)
(0.0264968 0.423773 7.80526e-20)
(0.020021 0.421889 -2.58053e-20)
(0.0139943 0.420544 -1.26727e-20)
(0.00827642 0.419679 6.37266e-21)
(0.00273901 0.419255 6.31643e-21)
(-0.00273901 0.419255 6.31643e-21)
(-0.00827642 0.419679 6.37266e-21)
(-0.0139943 0.420544 -1.26727e-20)
(-0.020021 0.421889 -2.58053e-20)
(-0.0264968 0.423773 7.80526e-20)
(-0.0335792 0.42628 -5.21954e-20)
(-0.0414479 0.429518 0)
(-0.0503095 0.433628 -5.53436e-20)
(-0.0604013 0.438782 5.52022e-20)
(-0.0719926 0.44519 0)
(-0.0853816 0.453092 -1.20256e-19)
(-0.100884 0.462752 1.19684e-19)
(-0.118805 0.474435 0)
(-0.139396 0.488361 0)
(-0.162763 0.504618 0)
(-0.188732 0.523019 -1.41731e-19)
(-0.216646 0.542869 1.40282e-19)
(-0.245075 0.562615 0)
(-0.27147 0.579359 -3.10719e-19)
(-0.29177 0.588253 3.08825e-19)
(-0.300207 0.581812 0)
(-0.289715 0.549438 -3.49555e-19)
(-0.25142 0.478025 3.57103e-19)
(-0.181809 0.348814 0)
(-0.0709225 0.151965 -4.14368e-19)
(0.0633542 0.144686 3.40085e-19)
(0.164573 0.339339 0)
(0.231757 0.470423 0)
(0.27138 0.546907 0)
(0.285834 0.584579 2.83484e-19)
(0.28205 0.595401 -2.83118e-19)
(0.266084 0.58951 0)
(0.243209 0.574408 0)
(0.217354 0.555209 0)
(0.191154 0.535138 -1.28491e-19)
(0.166206 0.516039 1.29732e-19)
(0.143344 0.498835 0)
(0.122897 0.483872 0)
(0.104882 0.471163 0)
(0.0891395 0.460547 1.13694e-19)
(0.0754249 0.451791 -1.14235e-19)
(0.0634648 0.44464 0)
(0.0529873 0.438853 0)
(0.0437388 0.434216 0)
(0.0354904 0.430548 0)
(0.0280393 0.4277 0)
(0.0212064 0.425553 0)
(0.0148329 0.424017 0)
(0.00877626 0.423028 0)
(0.00290506 0.422544 0)
(-0.00290506 0.422544 0)
(-0.00877626 0.423028 0)
(-0.0148329 0.424017 0)
(-0.0212064 0.425553 0)
(-0.0280393 0.4277 0)
(-0.0354904 0.430548 0)
(-0.0437388 0.434216 0)
(-0.0529873 0.438853 0)
(-0.0634648 0.44464 0)
(-0.0754249 0.451791 -1.14235e-19)
(-0.0891395 0.460547 1.13694e-19)
(-0.104882 0.471163 0)
(-0.122897 0.483872 0)
(-0.143344 0.498835 0)
(-0.166206 0.516039 1.29732e-19)
(-0.191154 0.535138 -1.28491e-19)
(-0.217354 0.555209 0)
(-0.243209 0.574408 0)
(-0.266084 0.58951 0)
(-0.28205 0.595401 -2.83118e-19)
(-0.285834 0.584579 2.83484e-19)
(-0.27138 0.546907 0)
(-0.231757 0.470423 0)
(-0.164573 0.339339 0)
(-0.0633542 0.144686 -3.40085e-19)
(0.0564522 0.138434 0)
(0.148454 0.330267 0)
(0.212553 0.462476 0)
(0.25272 0.543202 0)
(0.270352 0.585722 0)
(0.270706 0.600863 0)
(0.258855 0.598175 0)
(0.239509 0.585046 0)
(0.216381 0.566752 0)
(0.192117 0.546781 0)
(0.168427 0.527246 -1.19279e-19)
(0.146295 0.50929 1.20338e-19)
(0.126189 0.493426 0)
(0.108245 0.47978 0)
(0.0923951 0.468263 0)
(0.0784619 0.458679 0)
(0.0662178 0.450796 0)
(0.0554219 0.444379 0)
(0.0458403 0.439211 0)
(0.0372556 0.435105 0)
(0.0294712 0.431907 0)
(0.0223109 0.429489 0)
(0.0156164 0.427757 0)
(0.00924401 0.426639 0)
(0.00306057 0.426092 0)
(-0.00306057 0.426092 0)
(-0.00924401 0.426639 0)
(-0.0156164 0.427757 0)
(-0.0223109 0.429489 0)
(-0.0294712 0.431907 0)
(-0.0372556 0.435105 0)
(-0.0458403 0.439211 0)
(-0.0554219 0.444379 0)
(-0.0662178 0.450796 0)
(-0.0784619 0.458679 0)
(-0.0923951 0.468263 0)
(-0.108245 0.47978 0)
(-0.126189 0.493426 0)
(-0.146295 0.50929 1.20338e-19)
(-0.168427 0.527246 -1.19279e-19)
(-0.192117 0.546781 0)
(-0.216381 0.566752 0)
(-0.239509 0.585046 0)
(-0.258855 0.598175 0)
(-0.270706 0.600863 0)
(-0.270352 0.585722 0)
(-0.25272 0.543202 0)
(-0.212553 0.462476 0)
(-0.148454 0.330267 0)
(-0.0564522 0.138434 0)
(0.0500254 0.132889 0)
(0.133205 0.321425 -2.17283e-19)
(0.193793 0.454136 -4.26507e-21)
(0.233904 0.538382 4.18952e-19)
(0.254046 0.585327 -2.09209e-19)
(0.258054 0.604688 0)
(0.250067 0.605348 -1.12014e-19)
(0.234199 0.594477 2.25912e-19)
(0.21389 0.577418 -2.27983e-19)
(0.191731 0.557861 1.14836e-19)
(0.169498 0.538151 0)
(0.14829 0.519647 -1.11933e-19)
(0.128703 0.50303 2.23326e-21)
(0.110982 0.488548 1.11397e-19)
(0.0951519 0.476194 0)
(0.081103 0.465822 0)
(0.0686579 0.457227 0)
(0.0576102 0.450185 0)
(0.0477488 0.444486 -5.10634e-20)
(0.0388712 0.439939 5.11883e-20)
(0.0307895 0.436384 0)
(0.0233322 0.43369 -2.48923e-20)
(0.016343 0.431756 2.49178e-20)
(0.00967863 0.430506 -6.17517e-21)
(0.00320521 0.429894 6.17711e-21)
(-0.00320521 0.429894 6.17711e-21)
(-0.00967863 0.430506 -6.17517e-21)
(-0.016343 0.431756 2.49178e-20)
(-0.0233322 0.43369 -2.48923e-20)
(-0.0307895 0.436384 0)
(-0.0388712 0.439939 5.11883e-20)
(-0.0477488 0.444486 -5.10635e-20)
(-0.0576102 0.450185 0)
(-0.0686579 0.457227 0)
(-0.081103 0.465822 0)
(-0.0951519 0.476194 0)
(-0.110982 0.488548 1.11397e-19)
(-0.128703 0.50303 2.23326e-21)
(-0.14829 0.519647 -1.11933e-19)
(-0.169498 0.538151 0)
(-0.191731 0.557861 1.14836e-19)
(-0.21389 0.577418 -2.27983e-19)
(-0.234199 0.594477 2.25912e-19)
(-0.250067 0.605348 -1.12014e-19)
(-0.258054 0.604688 0)
(-0.254046 0.585327 -2.09209e-19)
(-0.233904 0.538382 4.18952e-19)
(-0.193793 0.454136 -4.26507e-21)
(-0.133205 0.321425 -2.17283e-19)
(-0.0500254 0.132889 0)
(0.043937 0.127791 0)
(0.118645 0.312625 0)
(0.175462 0.445309 0)
(0.215053 0.532454 0)
(0.237144 0.58344 9.23958e-20)
(0.244356 0.606908 -9.1755e-20)
(0.239966 0.611026 0)
(0.227484 0.602661 -1.03157e-19)
(0.210035 0.587142 1.0388e-19)
(0.190103 0.568298 0)
(0.169487 0.548676 0)
(0.149373 0.529834 0)
(0.130463 0.512621 0)
(0.113107 0.497415 -1.05146e-19)
(0.0974157 0.484298 1.57913e-19)
(0.08335 0.473184 -8.05385e-22)
(0.0707844 0.463903 -5.18193e-20)
(0.0595501 0.456251 0)
(0.049462 0.450025 0)
(0.0403349 0.445036 -2.48458e-20)
(0.031992 0.441122 2.48981e-20)
(0.0242684 0.438147 0)
(0.0170114 0.436007 0)
(0.0100793 0.434622 0)
(0.00333868 0.433942 0)
(-0.00333868 0.433942 0)
(-0.0100793 0.434622 0)
(-0.0170114 0.436007 0)
(-0.0242684 0.438147 0)
(-0.031992 0.441122 2.48981e-20)
(-0.0403349 0.445036 -2.48458e-20)
(-0.049462 0.450025 0)
(-0.0595501 0.456251 0)
(-0.0707844 0.463903 -5.18193e-20)
(-0.08335 0.473184 -8.05384e-22)
(-0.0974157 0.484298 1.57913e-19)
(-0.113107 0.497415 -1.05146e-19)
(-0.130463 0.512621 0)
(-0.149373 0.529834 0)
(-0.169487 0.548676 0)
(-0.190103 0.568298 0)
(-0.210035 0.587142 1.0388e-19)
(-0.227484 0.602661 -1.03157e-19)
(-0.239966 0.611026 0)
(-0.244356 0.606908 -9.1755e-20)
(-0.237144 0.58344 9.23958e-20)
(-0.215053 0.532454 0)
(-0.175462 0.445309 0)
(-0.118645 0.312625 0)
(-0.043937 0.127791 0)
(0.0380972 0.122923 5.77043e-22)
(0.104655 0.303682 -1.1737e-19)
(0.157549 0.43588 -6.63088e-20)
(0.196265 0.525397 6.43611e-20)
(0.219829 0.580082 0)
(0.229837 0.607539 0)
(0.228769 0.615198 8.90242e-20)
(0.219549 0.609559 -8.92824e-20)
(0.204959 0.595861 9.65086e-20)
(0.187336 0.578019 1.498e-21)
(0.168465 0.558744 5.75629e-22)
(0.149589 0.539778 -1.10537e-22)
(0.131499 0.522135 -5.88615e-22)
(0.114636 0.506326 -5.13735e-20)
(0.099195 0.49253 -5.34891e-22)
(0.0852064 0.48073 -5.71337e-22)
(0.072598 0.470796 -5.70581e-22)
(0.0612409 0.462553 -5.42915e-22)
(0.0509784 0.455808 -9.85022e-20)
(0.0416451 0.45038 2.47894e-20)
(0.0330772 0.446105 2.44098e-20)
(0.0251182 0.442847 2.41257e-20)
(0.0176205 0.440498 -2.41592e-20)
(0.0104454 0.438976 6.00371e-21)
(0.00346079 0.438228 -6.00761e-21)
(-0.00346079 0.438228 -6.00761e-21)
(-0.0104454 0.438976 6.00371e-21)
(-0.0176205 0.440498 -2.41592e-20)
(-0.0251182 0.442847 2.41257e-20)
(-0.0330772 0.446105 2.44098e-20)
(-0.0416451 0.45038 2.47894e-20)
(-0.0509784 0.455808 -9.85022e-20)
(-0.0612409 0.462553 -5.42914e-22)
(-0.072598 0.470796 -5.70579e-22)
(-0.0852064 0.48073 -5.71336e-22)
(-0.099195 0.49253 -5.34889e-22)
(-0.114636 0.506326 -5.13735e-20)
(-0.131499 0.522135 -5.88613e-22)
(-0.149589 0.539778 -1.10536e-22)
(-0.168465 0.558744 5.7563e-22)
(-0.187336 0.578019 1.498e-21)
(-0.204959 0.595861 9.65086e-20)
(-0.219549 0.609559 -8.92824e-20)
(-0.228769 0.615198 8.90242e-20)
(-0.229837 0.607539 0)
(-0.219829 0.580082 0)
(-0.196265 0.525397 6.43611e-20)
(-0.157549 0.43588 -6.63088e-20)
(-0.104655 0.303682 -1.1737e-19)
(-0.0380972 0.122923 2.174e-19)
(0.0324568 0.118111 0)
(0.0911696 0.294422 4.19974e-20)
(0.140065 0.425726 -4.01525e-20)
(0.177629 0.517167 0)
(0.20226 0.575252 0)
(0.214689 0.606585 0)
(0.216669 0.617852 0)
(0.210564 0.615133 0)
(0.198798 0.603519 -8.80571e-20)
(0.183534 0.586955 8.86649e-20)
(0.166505 0.568284 9.36405e-20)
(0.148988 0.549411 7.79655e-22)
(0.13184 0.53151 -9.5936e-20)
(0.115587 0.515227 0)
(0.100501 0.500844 0)
(0.0866779 0.488419 0)
(0.0741014 0.477875 -4.81521e-20)
(0.0626835 0.469064 4.83624e-20)
(0.052298 0.461814 0)
(0.0428011 0.455952 0)
(0.0340442 0.451318 -2.37145e-20)
(0.0258808 0.447777 1.19389e-20)
(0.0181698 0.445217 4.21256e-23)
(0.0107765 0.443556 1.18141e-20)
(0.00357139 0.44274 0)
(-0.00357139 0.44274 0)
(-0.0107765 0.443556 1.18141e-20)
(-0.0181698 0.445217 4.21258e-23)
(-0.0258808 0.447777 1.19389e-20)
(-0.0340442 0.451318 -2.37145e-20)
(-0.0428011 0.455952 0)
(-0.052298 0.461814 0)
(-0.0626835 0.469064 4.83624e-20)
(-0.0741014 0.477875 -4.81521e-20)
(-0.0866779 0.488419 0)
(-0.100501 0.500844 0)
(-0.115587 0.515227 0)
(-0.13184 0.53151 -9.5936e-20)
(-0.148988 0.549411 7.79656e-22)
(-0.166505 0.568284 9.36405e-20)
(-0.183534 0.586955 8.86649e-20)
(-0.198798 0.603519 -8.80571e-20)
(-0.210564 0.615133 0)
(-0.216669 0.617852 0)
(-0.214689 0.606585 0)
(-0.20226 0.575252 0)
(-0.177629 0.517167 0)
(-0.140065 0.425726 -4.01526e-20)
(-0.0911696 0.294422 4.19974e-20)
(-0.0324568 0.118111 0)
(0.0270009 0.113211 -2.5139e-20)
(0.0781734 0.28469 3.86305e-20)
(0.123042 0.414732 -2.24249e-20)
(0.159231 0.507712 0)
(0.184581 0.568933 0)
(0.199082 0.60404 0)
(0.20384 0.618969 0)
(0.200684 0.619346 0)
(0.191681 0.610059 0)
(0.178793 0.595039 8.39615e-20)
(0.163678 0.577224 -8.45763e-20)
(0.147617 0.558664 0)
(0.131521 0.540683 -4.54914e-20)
(0.115982 0.524062 4.58257e-20)
(0.101345 0.509193 0)
(0.0877724 0.496213 0)
(0.0752991 0.485103 0)
(0.0638802 0.475754 0)
(0.0534217 0.468016 -2.3222e-20)
(0.0438033 0.46173 2.32983e-20)
(0.0348931 0.456741 0)
(0.0265561 0.452917 -1.15535e-20)
(0.0186591 0.450147 1.15741e-20)
(0.0110725 0.448347 0)
(0.00367044 0.447461 0)
(-0.00367044 0.447461 0)
(-0.0110725 0.448347 0)
(-0.0186591 0.450147 1.15741e-20)
(-0.0265561 0.452917 -1.15535e-20)
(-0.0348931 0.456741 0)
(-0.0438033 0.46173 2.32983e-20)
(-0.0534217 0.468016 -2.3222e-20)
(-0.0638802 0.475754 0)
(-0.0752991 0.485103 0)
(-0.0877724 0.496213 0)
(-0.101345 0.509193 0)
(-0.115982 0.524062 4.58257e-20)
(-0.131521 0.540683 -4.54914e-20)
(-0.147617 0.558664 0)
(-0.163678 0.577224 -8.45763e-20)
(-0.178793 0.595039 8.39615e-20)
(-0.191681 0.610059 0)
(-0.200684 0.619346 0)
(-0.20384 0.618969 0)
(-0.199082 0.60404 0)
(-0.184581 0.568933 0)
(-0.159231 0.507712 0)
(-0.123042 0.414732 -2.24249e-20)
(-0.0781734 0.28469 3.86306e-20)
(-0.0270009 0.113211 -2.90803e-21)
(0.0217431 0.108113 -7.12647e-21)
(0.0656869 0.274361 6.73068e-21)
(0.106531 0.402798 -6.43126e-21)
(0.141162 0.496981 0)
(0.16692 0.561105 0)
(0.18317 0.599889 0)
(0.190436 0.618527 0)
(0.190051 0.622159 3.27583e-20)
(0.183727 0.615428 -6.87014e-20)
(0.173208 0.602208 3.60446e-20)
(0.160053 0.585497 4.02946e-20)
(0.145528 0.567469 -4.05938e-20)
(0.130574 0.549592 0)