/*--------------------------------*- C++ -*----------------------------------*\
  =========                 |
  \\      /  F ield         | OpenFOAM: The Open Source CFD Toolbox
   \\    /   O peration     | Website:  https://openfoam.org
    \\  /    A nd           | Version:  6
     \\/     M anipulation  |
\*---------------------------------------------------------------------------*/
FoamFile
{
    version     2.0;
    format      ascii;
    class       volScalarField;
    location    "0";
    object      Cx;
}
// * * * * * * * * * * * * * * * * * * * * * * * * * * * * * * * * * * * * * //

dimensions      [0 1 0 0 0 0 0];

internalField   nonuniform List<scalar> 
2500
(
-0.487804
-0.467894
-0.447983
-0.428073
-0.408163
-0.388252
-0.368342
-0.348431
-0.328521
-0.308611
-0.2887
-0.26879
-0.24888
-0.228969
-0.209059
-0.189149
-0.169238
-0.149328
-0.129417
-0.109507
-0.0895967
-0.0696863
-0.0497759
-0.0298656
-0.00995519
0.00995519
0.0298656
0.0497759
0.0696863
0.0895967
0.109507
0.129417
0.149328
0.169238
0.189149
0.209059
0.228969
0.24888
0.26879
0.2887
0.308611
0.328521
0.348431
0.368342
0.388252
0.408163
0.428073
0.447983
0.467894
0.487804
-0.483412
-0.463681
-0.44395
-0.424219
-0.404488
-0.384757
-0.365025
-0.345294
-0.325563
-0.305832
-0.286101
-0.26637
-0.246639
-0.226908
-0.207177
-0.187445
-0.167714
-0.147983
-0.128252
-0.108521
-0.08879
-0.0690589
-0.0493278
-0.0295967
-0.00986555
0.00986555
0.0295967
0.0493278
0.0690589
0.08879
0.108521
0.128252
0.147983
0.167714
0.187445
0.207177
0.226908
0.246639
0.26637
0.286101
0.305832
0.325563
0.345294
0.365025
0.384757
0.404488
0.424219
0.44395
0.463681
0.483412
-0.479039
-0.459487
-0.439934
-0.420381
-0.400829
-0.381276
-0.361724
-0.342171
-0.322618
-0.303066
-0.283513
-0.26396
-0.244408
-0.224855
-0.205303
-0.18575
-0.166197
-0.146645
-0.127092
-0.107539
-0.0879868
-0.0684342
-0.0488816
-0.0293289
-0.00977631
0.00977631
0.0293289
0.0488816
0.0684342
0.0879868
0.107539
0.127092
0.146645
0.166197
0.18575
0.205303
0.224855
0.244408
0.26396
0.283513
0.303066
0.322618
0.342171
0.361724
0.381276
0.400829
0.420381
0.439934
0.459487
0.479039
-0.474699
-0.455324
-0.435948
-0.416573
-0.397197
-0.377822
-0.358446
-0.339071
-0.319695
-0.30032
-0.280944
-0.261569
-0.242193
-0.222818
-0.203442
-0.184067
-0.164692
-0.145316
-0.125941
-0.106565
-0.0871896
-0.0678141
-0.0484387
-0.0290632
-0.00968774
0.00968774
0.0290632
0.0484387
0.0678141
0.0871896
0.106565
0.125941
0.145316
0.164692
0.184067
0.203442
0.222818
0.242193
0.261569
0.280944
0.30032
0.319695
0.339071
0.358446
0.377822
0.397197
0.416573
0.435948
0.455324
0.474699
-0.470404
-0.451204
-0.432004
-0.412804
-0.393604
-0.374403
-0.355203
-0.336003
-0.316803
-0.297603
-0.278403
-0.259202
-0.240002
-0.220802
-0.201602
-0.182402
-0.163202
-0.144001
-0.124801
-0.105601
-0.0864008
-0.0672006
-0.0480004
-0.0288003
-0.00960009
0.00960009
0.0288003
0.0480004
0.0672006
0.0864008
0.105601
0.124801
0.144001
0.163202
0.182402
0.201602
0.220802
0.240002
0.259202
0.278403
0.297603
0.316803
0.336003
0.355203
0.374403
0.393604
0.412804
0.432004
0.451204
0.470404
-0.466169
-0.447141
-0.428114
-0.409087
-0.39006
-0.371032
-0.352005
-0.332978
-0.31395
-0.294923
-0.275896
-0.256869
-0.237841
-0.218814
-0.199787
-0.180759
-0.161732
-0.142705
-0.123677
-0.10465
-0.0856228
-0.0665955
-0.0475682
-0.0285409
-0.00951365
0.00951365
0.0285409
0.0475682
0.0665955
0.0856228
0.10465
0.123677
0.142705
0.161732
0.180759
0.199787
0.218814
0.237841
0.256869
0.275896
0.294923
0.31395
0.332978
0.352005
0.371032
0.39006
0.409087
0.428114
0.447141
0.466169
-0.462006
-0.443149
-0.424291
-0.405434
-0.386576
-0.367719
-0.348862
-0.330004
-0.311147
-0.292289
-0.273432
-0.254575
-0.235717
-0.21686
-0.198003
-0.179145
-0.160288
-0.14143
-0.122573
-0.103716
-0.0848582
-0.0660008
-0.0471435
-0.0282861
-0.00942869
0.00942869
0.0282861
0.0471435
0.0660008
0.0848582
0.103716
0.122573
0.14143
0.160288
0.179145
0.198003
0.21686
0.235717
0.254575
0.273432
0.292289
0.311147
0.330004
0.348862
0.367719
0.386576
0.405434
0.424291
0.443149
0.462006
-0.45793
-0.439239
-0.420548
-0.401857
-0.383166
-0.364475
-0.345784
-0.327093
-0.308402
-0.289711
-0.27102
-0.252329
-0.233638
-0.214947
-0.196256
-0.177565
-0.158874
-0.140183
-0.121492
-0.102801
-0.0841096
-0.0654185
-0.0467275
-0.0280365
-0.00934551
0.00934551
0.0280365
0.0467275
0.0654185
0.0841096
0.102801
0.121492
0.140183
0.158874
0.177565
0.196256
0.214947
0.233638
0.252329
0.27102
0.289711
0.308402
0.327093
0.345784
0.364475
0.383166
0.401857
0.420548
0.439239
0.45793
-0.453955
-0.435426
-0.416897
-0.398368
-0.37984
-0.361311
-0.342782
-0.324253
-0.305725
-0.287196
-0.268667
-0.250138
-0.23161
-0.213081
-0.194552
-0.176023
-0.157495
-0.138966
-0.120437
-0.101908
-0.0833794
-0.0648507
-0.0463219
-0.0277931
-0.00926438
0.00926438
0.0277931
0.0463219
0.0648507
0.0833794
0.101908
0.120437
0.138966
0.157495
0.176023
0.194552
0.213081
0.23161
0.250138
0.268667
0.287196
0.305725
0.324253
0.342782
0.361311
0.37984
0.398368
0.416897
0.435426
0.453955
-0.450095
-0.431724
-0.413353
-0.394982
-0.376611
-0.358239
-0.339868
-0.321497
-0.303126
-0.284754
-0.266383
-0.248012
-0.229641
-0.211269
-0.192898
-0.174527
-0.156156
-0.137784
-0.119413
-0.101042
-0.0826706
-0.0642994
-0.0459281
-0.0275569
-0.00918562
0.00918562
0.0275569
0.0459281
0.0642994
0.0826706
0.101042
0.119413
0.137784
0.156156
0.174527
0.192898
0.211269
0.229641
0.248012
0.266383
0.284754
0.303126
0.321497
0.339868
0.358239
0.376611
0.394982
0.413353
0.431724
0.450095
-0.446367
-0.428148
-0.409929
-0.39171
-0.373491
-0.355272
-0.337053
-0.318834
-0.300615
-0.282396
-0.264176
-0.245957
-0.227738
-0.209519
-0.1913
-0.173081
-0.154862
-0.136643
-0.118424
-0.100205
-0.0819858
-0.0637667
-0.0455477
-0.0273286
-0.00910953
0.00910953
0.0273286
0.0455477
0.0637667
0.0819858
0.100205
0.118424
0.136643
0.154862
0.173081
0.1913
0.209519
0.227738
0.245957
0.264176
0.282396
0.300615
0.318834
0.337053
0.355272
0.373491
0.39171
0.409929
0.428148
0.446367
-0.442785
-0.424712
-0.406639
-0.388566
-0.370494
-0.352421
-0.334348
-0.316275
-0.298202
-0.280129
-0.262056
-0.243984
-0.225911
-0.207838
-0.189765
-0.171692
-0.153619
-0.135546
-0.117474
-0.0994007
-0.0813279
-0.063255
-0.0451821
-0.0271093
-0.00903643
0.00903643
0.0271093
0.0451821
0.063255
0.0813279
0.0994007
0.117474
0.135546
0.153619
0.171692
0.189765
0.207838
0.225911
0.243984
0.262056
0.280129
0.298202
0.316275
0.334348
0.352421
0.370494
0.388566
0.406639
0.424712
0.442785
-0.439365
-0.421432
-0.403498
-0.385565
-0.367632
-0.349699
-0.331765
-0.313832
-0.295899
-0.277966
-0.260032
-0.242099
-0.224166
-0.206233
-0.188299
-0.170366
-0.152433
-0.134499
-0.116566
-0.098633
-0.0806997
-0.0627664
-0.0448332
-0.0268999
-0.00896663
0.00896663
0.0268999
0.0448332
0.0627664
0.0806997
0.098633
0.116566
0.134499
0.152433
0.170366
0.188299
0.206233
0.224166
0.242099
0.260032
0.277966
0.295899
0.313832
0.331765
0.349699
0.367632
0.385565
0.403498
0.421432
0.439365
-0.436123
-0.418322
-0.400521
-0.38272
-0.364919
-0.347118
-0.329317
-0.311516
-0.293716
-0.275915
-0.258114
-0.240313
-0.222512
-0.204711
-0.18691
-0.169109
-0.151308
-0.133507
-0.115706
-0.0979052
-0.0801042
-0.0623033
-0.0445024
-0.0267014
-0.00890047
0.00890047
0.0267014
0.0445024
0.0623033
0.0801042
0.0979052
0.115706
0.133507
0.151308
0.169109
0.18691
0.204711
0.222512
0.240313
0.258114
0.275915
0.293716
0.311516
0.329317
0.347118
0.364919
0.38272
0.400521
0.418322
0.436123
-0.433075
-0.415399
-0.397722
-0.380046
-0.362369
-0.344693
-0.327016
-0.30934
-0.291663
-0.273986
-0.25631
-0.238633
-0.220957
-0.20328
-0.185604
-0.167927
-0.150251
-0.132574
-0.114898
-0.097221
-0.0795445
-0.0618679
-0.0441914
-0.0265148
-0.00883827
0.00883827
0.0265148
0.0441914
0.0618679
0.0795445
0.097221
0.114898
0.132574
0.150251
0.167927
0.185604
0.20328
0.220957
0.238633
0.25631
0.273986
0.291663
0.30934
0.327016
0.344693
0.362369
0.380046
0.397722
0.415399
0.433075
-0.430238
-0.412677
-0.395117
-0.377556
-0.359995
-0.342435
-0.324874
-0.307313
-0.289752
-0.272192
-0.254631
-0.23707
-0.219509
-0.201949
-0.184388
-0.166827
-0.149266
-0.131706
-0.114145
-0.0965841
-0.0790233
-0.0614626
-0.0439019
-0.0263411
-0.00878037
0.00878037
0.0263411
0.0439019
0.0614626
0.0790233
0.0965841
0.114145
0.131706
0.149266
0.166827
0.184388
0.201949
0.219509
0.23707
0.254631
0.272192
0.289752
0.307313
0.324874
0.342435
0.359995
0.377556
0.395117
0.412677
0.430238
-0.427628
-0.410173
-0.392719
-0.375265
-0.357811
-0.340357
-0.322902
-0.305448
-0.287994
-0.27054
-0.253086
-0.235632
-0.218177
-0.200723
-0.183269
-0.165815
-0.148361
-0.130906
-0.113452
-0.095998
-0.0785438
-0.0610897
-0.0436355
-0.0261813
-0.00872709
0.00872709
0.0261813
0.0436355
0.0610897
0.0785438
0.095998
0.113452
0.130906
0.148361
0.165815
0.183269
0.200723
0.218177
0.235632
0.253086
0.27054
0.287994
0.305448
0.322902
0.340357
0.357811
0.375265
0.392719
0.410173
0.427628
-0.425259
-0.407902
-0.390544
-0.373187
-0.355829
-0.338472
-0.321114
-0.303756
-0.286399
-0.269041
-0.251684
-0.234326
-0.216969
-0.199611
-0.182254
-0.164896
-0.147539
-0.130181
-0.112824
-0.0954663
-0.0781088
-0.0607513
-0.0433938
-0.0260363
-0.00867876
0.00867876
0.0260363
0.0433938
0.0607513
0.0781088
0.0954663
0.112824
0.130181
0.147539
0.164896
0.182254
0.199611
0.216969
0.234326
0.251684
0.269041
0.286399
0.303756
0.321114
0.338472
0.355829
0.373187
0.390544
0.407902
0.425259
-0.423148
-0.405876
-0.388605
-0.371334
-0.354062
-0.336791
-0.31952
-0.302248
-0.284977
-0.267706
-0.250434
-0.233163
-0.215892
-0.19862
-0.181349
-0.164078
-0.146806
-0.129535
-0.112264
-0.0949923
-0.077721
-0.0604497
-0.0431783
-0.025907
-0.00863567
0.00863567
0.025907
0.0431783
0.0604497
0.077721
0.0949923
0.112264
0.129535
0.146806
0.164078
0.181349
0.19862
0.215892
0.233163
0.250434
0.267706
0.284977
0.302248
0.31952
0.336791
0.354062
0.371334
0.388605
0.405876
0.423148
-0.421308
-0.404112
-0.386915
-0.369719
-0.352523
-0.335327
-0.31813
-0.300934
-0.283738
-0.266542
-0.249346
-0.232149
-0.214953
-0.197757
-0.180561
-0.163364
-0.146168
-0.128972
-0.111776
-0.0945793
-0.0773831
-0.0601868
-0.0429906
-0.0257944
-0.00859812
0.00859812
0.0257944
0.0429906
0.0601868
0.0773831
0.0945793
0.111776
0.128972
0.146168
0.163364
0.180561
0.197757
0.214953
0.232149
0.249346
0.266542
0.283738
0.300934
0.31813
0.335327
0.352523
0.369719
0.386915
0.404112
0.421308
-0.419753
-0.40262
-0.385487
-0.368355
-0.351222
-0.334089
-0.316956
-0.299824
-0.282691
-0.265558
-0.248425
-0.231292
-0.21416
-0.197027
-0.179894
-0.162761
-0.145629
-0.128496
-0.111363
-0.0942302
-0.0770975
-0.0599647
-0.0428319
-0.0256992
-0.00856639
0.00856639
0.0256992
0.0428319
0.0599647
0.0770975
0.0942302
0.111363
0.128496
0.145629
0.162761
0.179894
0.197027
0.21416
0.231292
0.248425
0.265558
0.282691
0.299824
0.316956
0.334089
0.351222
0.368355
0.385487
0.40262
0.419753
-0.418494
-0.401413
-0.384331
-0.36725
-0.350169
-0.333087
-0.316006
-0.298924
-0.281843
-0.264762
-0.24768
-0.230599
-0.213517
-0.196436
-0.179355
-0.162273
-0.145192
-0.12811
-0.111029
-0.0939477
-0.0768663
-0.0597849
-0.0427035
-0.0256221
-0.0085407
0.0085407
0.0256221
0.0427035
0.0597849
0.0768663
0.0939477
0.111029
0.12811
0.145192
0.162273
0.179355
0.196436
0.213517
0.230599
0.24768
0.264762
0.281843
0.298924
0.316006
0.333087
0.350169
0.36725
0.384331
0.401413
0.418494
-0.417541
-0.400499
-0.383456
-0.366414
-0.349371
-0.332329
-0.315286
-0.298244
-0.281201
-0.264159
-0.247116
-0.230074
-0.213031
-0.195989
-0.178946
-0.161904
-0.144861
-0.127819
-0.110776
-0.0937337
-0.0766912
-0.0596487
-0.0426062
-0.0255637
-0.00852125
0.00852125
0.0255637
0.0426062
0.0596487
0.0766912
0.0937337
0.110776
0.127819
0.144861
0.161904
0.178946
0.195989
0.213031
0.230074
0.247116
0.264159
0.281201
0.298244
0.315286
0.332329
0.349371
0.366414
0.383456
0.400499
0.417541
-0.416902
-0.399885
-0.382869
-0.365852
-0.348836
-0.33182
-0.314803
-0.297787
-0.28077
-0.263754
-0.246738
-0.229721
-0.212705
-0.195688
-0.178672
-0.161656
-0.144639
-0.127623
-0.110607
-0.0935901
-0.0765738
-0.0595574
-0.042541
-0.0255246
-0.0085082
0.0085082
0.0255246
0.042541
0.0595574
0.0765738
0.0935901
0.110607
0.127623
0.144639
0.161656
0.178672
0.195688
0.212705
0.229721
0.246738
0.263754
0.28077
0.297787
0.314803
0.33182
0.348836
0.365852
0.382869
0.399885
0.416902
-0.41658
-0.399577
-0.382574
-0.365571
-0.348567
-0.331564
-0.314561
-0.297557
-0.280554
-0.263551
-0.246548
-0.229544
-0.212541
-0.195538
-0.178534
-0.161531
-0.144528
-0.127525
-0.110521
-0.0935181
-0.0765148
-0.0595115
-0.0425082
-0.0255049
-0.00850164
0.00850164
0.0255049
0.0425082
0.0595115
0.0765148
0.0935181
0.110521
0.127525
0.144528
0.161531
0.178534
0.195538
0.212541
0.229544
0.246548
0.263551
0.280554
0.297557
0.314561
0.331564
0.348567
0.365571
0.382574
0.399577
0.41658
-0.41658
-0.399577
-0.382574
-0.365571
-0.348567
-0.331564
-0.314561
-0.297557
-0.280554
-0.263551
-0.246548
-0.229544
-0.212541
-0.195538
-0.178534
-0.161531
-0.144528
-0.127525
-0.110521
-0.0935181
-0.0765148
-0.0595115
-0.0425082
-0.0255049
-0.00850164
0.00850164
0.0255049
0.0425082
0.0595115
0.0765148
0.0935181
0.110521
0.127525
0.144528
0.161531
0.178534
0.195538
0.212541
0.229544
0.246548
0.263551
0.280554
0.297557
0.314561
0.331564
0.348567
0.365571
0.382574
0.399577
0.41658
-0.416902
-0.399885
-0.382869
-0.365852
-0.348836
-0.33182
-0.314803
-0.297787
-0.28077
-0.263754
-0.246738
-0.229721
-0.212705
-0.195688
-0.178672
-0.161656
-0.144639
-0.127623
-0.110607
-0.0935901
-0.0765738
-0.0595574
-0.042541
-0.0255246
-0.0085082
0.0085082
0.0255246
0.042541
0.0595574
0.0765738
0.0935901
0.110607
0.127623
0.144639
0.161656
0.178672
0.195688
0.212705
0.229721
0.246738
0.263754
0.28077
0.297787
0.314803
0.33182
0.348836
0.365852
0.382869
0.399885
0.416902
-0.417541
-0.400499
-0.383456
-0.366414
-0.349371
-0.332329
-0.315286
-0.298244
-0.281201
-0.264159
-0.247116
-0.230074
-0.213031
-0.195989
-0.178946
-0.161904
-0.144861
-0.127819
-0.110776
-0.0937337
-0.0766912
-0.0596487
-0.0426062
-0.0255637
-0.00852125
0.00852125
0.0255637
0.0426062
0.0596487
0.0766912
0.0937337
0.110776
0.127819
0.144861
0.161904
0.178946
0.195989
0.213031
0.230074
0.247116
0.264159
0.281201
0.298244
0.315286
0.332329
0.349371
0.366414
0.383456
0.400499
0.417541
-0.418494
-0.401413
-0.384331
-0.36725
-0.350169
-0.333087
-0.316006
-0.298924
-0.281843
-0.264762
-0.24768
-0.230599
-0.213517
-0.196436
-0.179355
-0.162273
-0.145192
-0.12811
-0.111029
-0.0939477
-0.0768663
-0.0597849
-0.0427035
-0.0256221
-0.0085407
0.0085407
0.0256221
0.0427035
0.0597849
0.0768663
0.0939477
0.111029
0.12811
0.145192
0.162273
0.179355
0.196436
0.213517
0.230599
0.24768
0.264762
0.281843
0.298924
0.316006
0.333087
0.350169
0.36725
0.384331
0.401413
0.418494
-0.419753
-0.40262
-0.385487
-0.368355
-0.351222
-0.334089
-0.316956
-0.299824
-0.282691
-0.265558
-0.248425
-0.231292
-0.21416
-0.197027
-0.179894
-0.162761
-0.145629
-0.128496
-0.111363
-0.0942302
-0.0770975
-0.0599647
-0.0428319
-0.0256992
-0.00856639
0.00856639
0.0256992
0.0428319
0.0599647
0.0770975
0.0942302
0.111363
0.128496
0.145629
0.162761
0.179894
0.197027
0.21416
0.231292
0.248425
0.265558
0.282691
0.299824
0.316956
0.334089
0.351222
0.368355
0.385487
0.40262
0.419753
-0.421308
-0.404112
-0.386915
-0.369719
-0.352523
-0.335327
-0.31813
-0.300934
-0.283738
-0.266542
-0.249346
-0.232149
-0.214953
-0.197757
-0.180561
-0.163364
-0.146168
-0.128972
-0.111776
-0.0945793
-0.0773831
-0.0601868
-0.0429906
-0.0257944
-0.00859812
0.00859812
0.0257944
0.0429906
0.0601868
0.0773831
0.0945793
0.111776
0.128972
0.146168
0.163364
0.180561
0.197757
0.214953
0.232149
0.249346
0.266542
0.283738
0.300934
0.31813
0.335327
0.352523
0.369719
0.386915
0.404112
0.421308
-0.423148
-0.405876
-0.388605
-0.371334
-0.354062
-0.336791
-0.31952
-0.302248
-0.284977
-0.267706
-0.250434
-0.233163
-0.215892
-0.19862
-0.181349
-0.164078
-0.146806
-0.129535
-0.112264
-0.0949923
-0.077721
-0.0604497
-0.0431783
-0.025907
-0.00863567
0.00863567
0.025907
0.0431783
0.0604497
0.077721
0.0949923
0.112264
0.129535
0.146806
0.164078
0.181349
0.19862
0.215892
0.233163
0.250434
0.267706
0.284977
0.302248
0.31952
0.336791
0.354062
0.371334
0.388605
0.405876
0.423148
-0.425259
-0.407902
-0.390544
-0.373187
-0.355829
-0.338472
-0.321114
-0.303756
-0.286399
-0.269041
-0.251684
-0.234326
-0.216969
-0.199611
-0.182254
-0.164896
-0.147539
-0.130181
-0.112824
-0.0954663
-0.0781088
-0.0607513
-0.0433938
-0.0260363
-0.00867876
0.00867876
0.0260363
0.0433938
0.0607513
0.0781088
0.0954663
0.112824
0.130181
0.147539
0.164896
0.182254
0.199611
0.216969
0.234326
0.251684
0.269041
0.286399
0.303756
0.321114
0.338472
0.355829
0.373187
0.390544
0.407902
0.425259
-0.427628
-0.410173
-0.392719
-0.375265
-0.357811
-0.340357
-0.322902
-0.305448
-0.287994
-0.27054
-0.253086
-0.235632
-0.218177
-0.200723
-0.183269
-0.165815
-0.148361
-0.130906
-0.113452
-0.095998
-0.0785438
-0.0610897
-0.0436355
-0.0261813
-0.00872709
0.00872709
0.0261813
0.0436355
0.0610897
0.0785438
0.095998
0.113452
0.130906
0.148361
0.165815
0.183269
0.200723
0.218177
0.235632
0.253086
0.27054
0.287994
0.305448
0.322902
0.340357
0.357811
0.375265
0.392719
0.410173
0.427628
-0.430238
-0.412677
-0.395117
-0.377556
-0.359995
-0.342435
-0.324874
-0.307313
-0.289752
-0.272192
-0.254631
-0.23707
-0.219509
-0.201949
-0.184388
-0.166827
-0.149266
-0.131706
-0.114145
-0.0965841
-0.0790233
-0.0614626
-0.0439019
-0.0263411
-0.00878037
0.00878037
0.0263411
0.0439019
0.0614626
0.0790233
0.0965841
0.114145
0.131706
0.149266
0.166827
0.184388
0.201949
0.219509
0.23707
0.254631
0.272192
0.289752
0.307313
0.324874
0.342435
0.359995
0.377556
0.395117
0.412677
0.430238
-0.433075
-0.415399
-0.397722
-0.380046
-0.362369
-0.344693
-0.327016
-0.30934
-0.291663
-0.273986
-0.25631
-0.238633
-0.220957
-0.20328
-0.185604
-0.167927
-0.150251
-0.132574
-0.114898
-0.097221
-0.0795445
-0.0618679
-0.0441914
-0.0265148
-0.00883827
0.00883827
0.0265148
0.0441914
0.0618679
0.0795445
0.097221
0.114898
0.132574
0.150251
0.167927
0.185604
0.20328
0.220957
0.238633
0.25631
0.273986
0.291663
0.30934
0.327016
0.344693
0.362369
0.380046
0.397722
0.415399
0.433075
-0.436123
-0.418322
-0.400521
-0.38272
-0.364919
-0.347118
-0.329317
-0.311516
-0.293716
-0.275915
-0.258114
-0.240313
-0.222512
-0.204711
-0.18691
-0.169109
-0.151308
-0.133507
-0.115706
-0.0979052
-0.0801042
-0.0623033
-0.0445024
-0.0267014
-0.00890047
0.00890047
0.0267014
0.0445024
0.0623033
0.0801042
0.0979052
0.115706
0.133507
0.151308
0.169109
0.18691
0.204711
0.222512
0.240313
0.258114
0.275915
0.293716
0.311516
0.329317
0.347118
0.364919
0.38272
0.400521
0.418322
0.436123
-0.439365
-0.421432
-0.403498
-0.385565
-0.367632
-0.349699
-0.331765
-0.313832
-0.295899
-0.277966
-0.260032
-0.242099
-0.224166
-0.206233
-0.188299
-0.170366
-0.152433
-0.134499
-0.116566
-0.098633
-0.0806997
-0.0627664
-0.0448332
-0.0268999
-0.00896663
0.00896663
0.0268999
0.0448332
0.0627664
0.0806997
0.098633
0.116566
0.134499
0.152433
0.170366
0.188299
0.206233
0.224166
0.242099
0.260032
0.277966
0.295899
0.313832
0.331765
0.349699
0.367632
0.385565
0.403498
0.421432
0.439365
-0.442785
-0.424712
-0.406639
-0.388566
-0.370494
-0.352421
-0.334348
-0.316275
-0.298202
-0.280129
-0.262056
-0.243984
-0.225911
-0.207838
-0.189765
-0.171692
-0.153619
-0.135546
-0.117474
-0.0994007
-0.0813279
-0.063255
-0.0451821
-0.0271093
-0.00903643
0.00903643
0.0271093
0.0451821
0.063255
0.0813279
0.0994007
0.117474
0.135546
0.153619
0.171692
0.189765
0.207838
0.225911
0.243984
0.262056
0.280129
0.298202
0.316275
0.334348
0.352421
0.370494
0.388566
0.406639
0.424712
0.442785
-0.446367
-0.428148
-0.409929
-0.39171
-0.373491
-0.355272
-0.337053
-0.318834
-0.300615
-0.282396
-0.264176
-0.245957
-0.227738
-0.209519
-0.1913
-0.173081
-0.154862
-0.136643
-0.118424
-0.100205
-0.0819858
-0.0637667
-0.0455477
-0.0273286
-0.00910953
0.00910953
0.0273286
0.0455477
0.0637667
0.0819858
0.100205
0.118424
0.136643
0.154862
0.173081
0.1913
0.209519
0.227738
0.245957
0.264176
0.282396
0.300615
0.318834
0.337053
0.355272
0.373491
0.39171
0.409929
0.428148
0.446367
-0.450095
-0.431724
-0.413353
-0.394982
-0.376611
-0.358239
-0.339868
-0.321497
-0.303126
-0.284754
-0.266383
-0.248012
-0.229641
-0.211269
-0.192898
-0.174527
-0.156156
-0.137784
-0.119413
-0.101042
-0.0826706
-0.0642994
-0.0459281
-0.0275569
-0.00918562
0.00918562
0.0275569
0.0459281
0.0642994
0.0826706
0.101042
0.119413
0.137784
0.156156
0.174527
0.192898
0.211269
0.229641
0.248012
0.266383
0.284754
0.303126
0.321497
0.339868
0.358239
0.376611
0.394982
0.413353
0.431724
0.450095
-0.453955
-0.435426
-0.416897
-0.398368
-0.37984
-0.361311
-0.342782
-0.324253
-0.305725
-0.287196
-0.268667
-0.250138
-0.23161
-0.213081
-0.194552
-0.176023
-0.157495
-0.138966
-0.120437
-0.101908
-0.0833794
-0.0648507
-0.0463219
-0.0277931
-0.00926438
0.00926438
0.0277931
0.0463219
0.0648507
0.0833794
0.101908
0.120437
0.138966
0.157495
0.176023
0.194552
0.213081
0.23161
0.250138
0.268667
0.287196
0.305725
0.324253
0.342782
0.361311
0.37984
0.398368
0.416897
0.435426
0.453955
-0.45793
-0.439239
-0.420548
-0.401857
-0.383166
-0.364475
-0.345784
-0.327093
-0.308402
-0.289711
-0.27102
-0.252329
-0.233638
-0.214947
-0.196256
-0.177565
-0.158874
-0.140183
-0.121492
-0.102801
-0.0841096
-0.0654185
-0.0467275
-0.0280365
-0.00934551
0.00934551
0.0280365
0.0467275
0.0654185
0.0841096
0.102801
0.121492
0.140183
0.158874
0.177565
0.196256
0.214947
0.233638
0.252329
0.27102
0.289711
0.308402
0.327093
0.345784
0.364475
0.383166
0.401857
0.420548
0.439239
0.45793
-0.462006
-0.443149
-0.424291
-0.405434
-0.386576
-0.367719
-0.348862
-0.330004
-0.311147
-0.292289
-0.273432
-0.254575
-0.235717
-0.21686
-0.198003
-0.179145
-0.160288
-0.14143
-0.122573
-0.103716
-0.0848582
-0.0660008
-0.0471435
-0.0282861
-0.00942869
0.00942869
0.0282861
0.0471435
0.0660008
0.0848582
0.103716
0.122573
0.14143
0.160288
0.179145
0.198003
0.21686
0.235717
0.254575
0.273432
0.292289
0.311147
0.330004
0.348862
0.367719
0.386576
0.405434
0.424291
0.443149
0.462006
-0.466169
-0.447141
-0.428114
-0.409087
-0.39006
-0.371032
-0.352005
-0.332978
-0.31395
-0.294923
-0.275896
-0.256869
-0.237841
-0.218814
-0.199787
-0.180759
-0.161732
-0.142705
-0.123677
-0.10465
-0.0856228
-0.0665955
-0.0475682
-0.0285409
-0.00951365
0.00951365
0.0285409
0.0475682
0.0665955
0.0856228
0.10465
0.123677
0.142705
0.161732
0.180759
0.199787
0.218814
0.237841
0.256869
0.275896
0.294923
0.31395
0.332978
0.352005
0.371032
0.39006
0.409087
0.428114
0.447141
0.466169
-0.470404
-0.451204
-0.432004
-0.412804
-0.393604
-0.374403
-0.355203
-0.336003
-0.316803
-0.297603
-0.278403
-0.259202
-0.240002
-0.220802
-0.201602
-0.182402
-0.163202
-0.144001
-0.124801
-0.105601
-0.0864008
-0.0672006
-0.0480004
-0.0288003
-0.00960009
0.00960009
0.0288003
0.0480004
0.0672006
0.0864008
0.105601
0.124801
0.144001
0.163202
0.182402
0.201602
0.220802
0.240002
0.259202
0.278403
0.297603
0.316803
0.336003
0.355203
0.374403
0.393604
0.412804
0.432004
0.451204
0.470404
-0.474699
-0.455324
-0.435948
-0.416573
-0.397197
-0.377822
-0.358446
-0.339071
-0.319695
-0.30032
-0.280944
-0.261569
-0.242193
-0.222818
-0.203442
-0.184067
-0.164692
-0.145316
-0.125941
-0.106565
-0.0871896
-0.0678141
-0.0484387
-0.0290632
-0.00968774
0.00968774
0.0290632
0.0484387
0.0678141
0.0871896
0.106565
0.125941
0.145316
0.164692
0.184067
0.203442
0.222818
0.242193
0.261569
0.280944
0.30032
0.319695
0.339071
0.358446
0.377822
0.397197
0.416573
0.435948
0.455324
0.474699
-0.479039
-0.459487
-0.439934
-0.420381
-0.400829
-0.381276
-0.361724
-0.342171
-0.322618
-0.303066
-0.283513
-0.26396
-0.244408
-0.224855
-0.205303
-0.18575
-0.166197
-0.146645
-0.127092
-0.107539
-0.0879868
-0.0684342
-0.0488816
-0.0293289
-0.00977631
0.00977631
0.0293289
0.0488816
0.0684342
0.0879868
0.107539
0.127092
0.146645
0.166197
0.18575
0.205303
0.224855
0.244408
0.26396
0.283513
0.303066
0.322618
0.342171
0.361724
0.381276
0.400829
0.420381
0.439934
0.459487
0.479039
-0.483412
-0.463681
-0.44395
-0.424219
-0.404488
-0.384757
-0.365025
-0.345294
-0.325563
-0.305832
-0.286101
-0.26637
-0.246639
-0.226908
-0.207177
-0.187445
-0.167714
-0.147983
-0.128252
-0.108521
-0.08879
-0.0690589
-0.0493278
-0.0295967
-0.00986555
0.00986555
0.0295967
0.0493278
0.0690589
0.08879
0.108521
0.128252
0.147983
0.167714
0.187445
0.207177
0.226908
0.246639
0.26637
0.286101
0.305832
0.325563
0.345294
0.365025
0.384757
0.404488
0.424219
0.44395
0.463681
0.483412
-0.487804
-0.467894
-0.447983
-0.428073
-0.408163
-0.388252
-0.368342
-0.348431
-0.328521
-0.308611
-0.2887
-0.26879
-0.24888
-0.228969
-0.209059
-0.189149
-0.169238
-0.149328
-0.129417
-0.109507
-0.0895967
-0.0696863
-0.0497759
-0.0298656
-0.00995519
0.00995519
0.0298656
0.0497759
0.0696863
0.0895967
0.109507
0.129417
0.149328
0.169238
0.189149
0.209059
0.228969
0.24888
0.26879
0.2887
0.308611
0.328521
0.348431
0.368342
0.388252
0.408163
0.428073
0.447983
0.467894
0.487804
)
;

boundaryField
{
    left
    {
        type            calculated;
        value           nonuniform List<scalar> 
50
(
-0.497756
-0.493274
-0.488812
-0.484383
-0.480001
-0.475679
-0.471431
-0.467272
-0.463216
-0.459278
-0.455474
-0.451819
-0.448329
-0.445022
-0.441912
-0.439017
-0.436353
-0.433937
-0.431783
-0.429905
-0.428319
-0.427035
-0.426062
-0.42541
-0.425082
-0.425082
-0.42541
-0.426062
-0.427035
-0.428319
-0.429905
-0.431783
-0.433937
-0.436353
-0.439017
-0.441912
-0.445022
-0.448329
-0.451819
-0.455474
-0.459278
-0.463216
-0.467272
-0.471431
-0.475679
-0.480001
-0.484383
-0.488812
-0.493274
-0.497756
)
;
    }
    right
    {
        type            calculated;
        value           nonuniform List<scalar> 
50
(
0.497756
0.493274
0.488812
0.484383
0.480001
0.475679
0.471431
0.467272
0.463216
0.459278
0.455474
0.451819
0.448329
0.445022
0.441912
0.439017
0.436353
0.433937
0.431783
0.429905
0.428319
0.427035
0.426062
0.42541
0.425082
0.425082
0.42541
0.426062
0.427035
0.428319
0.429905
0.431783
0.433937
0.436353
0.439017
0.441912
0.445022
0.448329
0.451819
0.455474
0.459278
0.463216
0.467272
0.471431
0.475679
0.480001
0.484383
0.488812
0.493274
0.497756
)
;
    }
    up
    {
        type            calculated;
        value           nonuniform List<scalar> 
50
(
-0.49
-0.47
-0.45
-0.43
-0.41
-0.39
-0.37
-0.35
-0.33
-0.31
-0.29
-0.27
-0.25
-0.23
-0.21
-0.19
-0.17
-0.15
-0.13
-0.11
-0.09
-0.07
-0.05
-0.03
-0.01
0.01
0.03
0.05
0.07
0.09
0.11
0.13
0.15
0.17
0.19
0.21
0.23
0.25
0.27
0.29
0.31
0.33
0.35
0.37
0.39
0.41
0.43
0.45
0.47
0.49
)
;
    }
    down
    {
        type            calculated;
        value           nonuniform List<scalar> 
50
(
-0.49
-0.47
-0.45
-0.43
-0.41
-0.39
-0.37
-0.35
-0.33
-0.31
-0.29
-0.27
-0.25
-0.23
-0.21
-0.19
-0.17
-0.15
-0.13
-0.11
-0.09
-0.07
-0.05
-0.03
-0.01
0.01
0.03
0.05
0.07
0.09
0.11
0.13
0.15
0.17
0.19
0.21
0.23
0.25
0.27
0.29
0.31
0.33
0.35
0.37
0.39
0.41
0.43
0.45
0.47
0.49
)
;
    }
    frontAndBack
    {
        type            empty;
    }
}


// ************************************************************************* //
