/*--------------------------------*- C++ -*----------------------------------*\
  =========                 |
  \\      /  F ield         | OpenFOAM: The Open Source CFD Toolbox
   \\    /   O peration     | Website:  https://openfoam.org
    \\  /    A nd           | Version:  6
     \\/     M anipulation  |
\*---------------------------------------------------------------------------*/
FoamFile
{
    version     2.0;
    format      ascii;
    class       volScalarField;
    location    "3200";
    object      p;
}
// * * * * * * * * * * * * * * * * * * * * * * * * * * * * * * * * * * * * * //

dimensions      [0 2 -2 0 0 0 0];

internalField   nonuniform List<scalar> 
2500
(
0.69647
0.301848
0.196188
0.148236
0.119039
0.100443
0.0874624
0.0778222
0.0703479
0.06437
0.0594798
0.0554136
0.0519932
0.0490932
0.0466233
0.0445161
0.0427208
0.0411984
0.0399188
0.0388584
0.0379991
0.0373269
0.0368313
0.0365048
0.0363428
0.0363428
0.0365048
0.0368313
0.0373269
0.0379991
0.0388584
0.0399188
0.0411984
0.0427208
0.0445161
0.0466233
0.0490932
0.0519932
0.0554136
0.0594798
0.06437
0.0703479
0.0778222
0.0874624
0.100443
0.119039
0.148236
0.196188
0.301848
0.69647
0.499337
0.271055
0.194999
0.1499
0.120924
0.101971
0.0885953
0.0786514
0.0709604
0.06483
0.0598321
0.0556891
0.052213
0.0492723
0.046772
0.0446419
0.0428292
0.0412934
0.0400036
0.0389353
0.0380701
0.0373934
0.0368947
0.0365663
0.0364032
0.0364032
0.0365663
0.0368947
0.0373934
0.0380701
0.0389353
0.0400036
0.0412934
0.0428292
0.0446419
0.046772
0.0492723
0.052213
0.0556891
0.0598321
0.06483
0.0709604
0.0786514
0.0885953
0.101971
0.120924
0.1499
0.194999
0.271055
0.499337
0.355918
0.235121
0.186574
0.147574
0.120745
0.102368
0.0890592
0.0790569
0.0712871
0.0650866
0.060033
0.0558474
0.0523393
0.0493746
0.0468562
0.0447124
0.0428893
0.0413457
0.0400498
0.0389769
0.0381082
0.037429
0.0369284
0.0365988
0.0364352
0.0364352
0.0365988
0.0369284
0.037429
0.0381082
0.0389769
0.0400498
0.0413457
0.0428893
0.0447124
0.0468562
0.0493746
0.0523393
0.0558474
0.060033
0.0650866
0.0712871
0.0790569
0.0890592
0.102368
0.120745
0.147574
0.186574
0.235121
0.355918
0.269445
0.203253
0.172469
0.141071
0.117944
0.101114
0.0884633
0.0787558
0.071122
0.0649867
0.059966
0.0557979
0.0522998
0.0493412
0.046827
0.0446862
0.0428654
0.0413236
0.0400291
0.0389574
0.0380896
0.0374111
0.0369111
0.0365819
0.0364184
0.0364184
0.0365819
0.0369111
0.0374111
0.0380896
0.0389574
0.0400291
0.0413236
0.0428654
0.0446862
0.046827
0.0493412
0.0522998
0.0557979
0.059966
0.0649867
0.071122
0.0787558
0.0884633
0.101114
0.117944
0.141071
0.172469
0.203253
0.269445
0.21006
0.175269
0.15651
0.132465
0.113429
0.0986256
0.0870159
0.0778614
0.070533
0.0645749
0.0596624
0.0555638
0.0521125
0.0491867
0.0466963
0.0445733
0.0427661
0.0412348
0.0399484
0.0388831
0.0380202
0.0373453
0.0368479
0.0365204
0.0363578
0.0363578
0.0365204
0.0368479
0.0373453
0.0380202
0.0388831
0.0399484
0.0412348
0.0427661
0.0445733
0.0466963
0.0491867
0.0521125
0.0555638
0.0596624
0.0645749
0.070533
0.0778614
0.0870159
0.0986256
0.113429
0.132465
0.15651
0.175269
0.21006
0.166143
0.150833
0.140712
0.123083
0.107921
0.0952862
0.0849176
0.0764829
0.0695833
0.0638901
0.0591478
0.0551631
0.0517906
0.0489212
0.0464723
0.0443805
0.042597
0.0410841
0.0398121
0.0387579
0.0379034
0.037235
0.0367421
0.0364175
0.0362564
0.0362564
0.0364175
0.0367421
0.037235
0.0379034
0.0387579
0.0398121
0.0410841
0.042597
0.0443805
0.0464723
0.0489212
0.0517906
0.0551631
0.0591478
0.0638901
0.0695833
0.0764829
0.0849176
0.0952862
0.107921
0.123083
0.140712
0.150833
0.166143
0.133786
0.130089
0.125917
0.113563
0.101852
0.0913497
0.0823072
0.0746946
0.0683129
0.0629545
0.0584351
0.0546032
0.0513387
0.0485476
0.0461567
0.0441088
0.042359
0.0408722
0.0396204
0.0385819
0.0377396
0.0370801
0.0365937
0.0362733
0.0361141
0.0361141
0.0362733
0.0365937
0.0370801
0.0377396
0.0385819
0.0396204
0.0408722
0.042359
0.0441088
0.0461567
0.0485476
0.0513387
0.0546032
0.0584351
0.0629545
0.0683129
0.0746946
0.0823072
0.0913497
0.101852
0.113563
0.125917
0.130089
0.133786
0.110013
0.112816
0.112505
0.104297
0.0955373
0.0870252
0.07931
0.0725695
0.0667642
0.0617928
0.0575387
0.0538929
0.0507621
0.0480692
0.0457517
0.0437597
0.0420529
0.0405995
0.0393737
0.0383554
0.0375286
0.0368808
0.0364027
0.0360875
0.035931
0.035931
0.0360875
0.0364027
0.0368808
0.0375286
0.0383554
0.0393737
0.0405995
0.0420529
0.0437597
0.0457517
0.0480692
0.0507621
0.0538929
0.0575387
0.0617928
0.0667642
0.0725695
0.07931
0.0870252
0.0955373
0.104297
0.112505
0.112816
0.110013
0.0923233
0.0985158
0.100599
0.0955407
0.0892201
0.0824923
0.076045
0.0701828
0.0649839
0.0604341
0.056477
0.0530441
0.0500687
0.0474912
0.045261
0.0433356
0.0416805
0.0402673
0.0390729
0.0380791
0.0372711
0.0366374
0.0361693
0.0358606
0.0357073
0.0357073
0.0358606
0.0361693
0.0366374
0.0372711
0.0380791
0.0390729
0.0402673
0.0416805
0.0433356
0.045261
0.0474912
0.0500687
0.0530441
0.056477
0.0604341
0.0649839
0.0701828
0.076045
0.0824923
0.0892201
0.0955407
0.100599
0.0985158
0.0923233
0.0789217
0.0866662
0.0901567
0.0874288
0.0830711
0.077894
0.0726158
0.067605
0.0630186
0.0589089
0.0552702
0.0520702
0.0492676
0.04682
0.0446888
0.0428399
0.0412442
0.0398774
0.0387195
0.037754
0.0369679
0.0363506
0.0358943
0.0355931
0.0354435
0.0354435
0.0355931
0.0358943
0.0363506
0.0369679
0.037754
0.0387195
0.0398774
0.0412442
0.0428399
0.0446888
0.04682
0.0492676
0.0520702
0.0552702
0.0589089
0.0630186
0.067605
0.0726158
0.077894
0.0830711
0.0874288
0.0901567
0.0866662
0.0789217
0.0685747
0.076809
0.081056
0.0800097
0.0771981
0.0733361
0.0691074
0.0648981
0.0609116
0.0572469
0.0539385
0.0509852
0.0483684
0.0460624
0.0440402
0.0422759
0.0407465
0.0394318
0.0383148
0.0373814
0.0366199
0.0360212
0.0355782
0.0352856
0.0351402
0.0351402
0.0352856
0.0355782
0.0360212
0.0366199
0.0373814
0.0383148
0.0394318
0.0407465
0.0422759
0.0440402
0.0460624
0.0483684
0.0509852
0.0539385
0.0572469
0.0609116
0.0648981
0.0691074
0.0733361
0.0771981
0.0800097
0.081056
0.076809
0.0685747
0.0604259
0.0685584
0.0731399
0.0732784
0.0716622
0.0688941
0.0655872
0.0621153
0.058702
0.0554762
0.0525017
0.0498029
0.0473811
0.0452256
0.0433204
0.0416477
0.0401904
0.0389326
0.0378606
0.0369624
0.0362283
0.0356502
0.0352219
0.0349388
0.034798
0.034798
0.0349388
0.0352219
0.0356502
0.0362283
0.0369624
0.0378606
0.0389326
0.0401904
0.0416477
0.0433204
0.0452256
0.0473811
0.0498029
0.0525017
0.0554762
0.058702
0.0621153
0.0655872
0.0688941
0.0716622
0.0732784
0.0731399
0.0685584
0.0604259
0.053874
0.0615973
0.0662479
0.0671992
0.066492
0.0646184
0.0621072
0.0593008
0.0564245
0.0536225
0.0509789
0.0485374
0.0463159
0.044317
0.0425347
0.0409592
0.0395789
0.0383823
0.0373587
0.0364987
0.0357942
0.0352384
0.0348261
0.0345534
0.0344176
0.0344176
0.0345534
0.0348261
0.0352384
0.0357942
0.0364987
0.0373587
0.0383823
0.0395789
0.0409592
0.0425347
0.044317
0.0463159
0.0485374
0.0509789
0.0536225
0.0564245
0.0593008
0.0621072
0.0646184
0.066492
0.0671992
0.0662479
0.0615973
0.053874
0.0484958
0.0556704
0.0602294
0.0617204
0.061693
0.0605405
0.0587057
0.0564904
0.0541089
0.0517094
0.0493878
0.0472018
0.0451825
0.0433438
0.0416889
0.0402147
0.0389153
0.0377833
0.0368112
0.0359919
0.0353189
0.034787
0.0343919
0.0341303
0.034
0.034
0.0341303
0.0343919
0.034787
0.0353189
0.0359919
0.0368112
0.0377833
0.0389153
0.0402147
0.0416889
0.0433438
0.0451825
0.0472018
0.0493878
0.0517094
0.0541089
0.0564904
0.0587057
0.0605405
0.061693
0.0617204
0.0602294
0.0556704
0.0484958
0.0439927
0.0505751
0.0549507
0.0567837
0.057256
0.056677
0.0554097
0.0537125
0.0517802
0.0497572
0.0477445
0.0458086
0.0439907
0.0423136
0.0407884
0.0394185
0.038203
0.0371383
0.0362201
0.0354435
0.0348039
0.0342972
0.0339203
0.0336704
0.0335459
0.0335459
0.0336704
0.0339203
0.0342972
0.0348039
0.0354435
0.0362201
0.0371383
0.038203
0.0394185
0.0407884
0.0423136
0.0439907
0.0458086
0.0477445
0.0497572
0.0517802
0.0537125
0.0554097
0.056677
0.057256
0.0567837
0.0549507
0.0505751
0.0439927
0.0401524
0.0461514
0.0502961
0.0523304
0.0531626
0.0530338
0.0522372
0.0509884
0.0494591
0.0477841
0.0460637
0.0443696
0.0427494
0.0412333
0.0398388
0.0385749
0.0374453
0.03645
0.0355875
0.0348553
0.0342505
0.0337703
0.0334123
0.0331748
0.0330563
0.0330563
0.0331748
0.0334123
0.0337703
0.0342505
0.0348553
0.0355875
0.03645
0.0374453
0.0385749
0.0398388
0.0412333
0.0427494
0.0443696
0.0460637
0.0477841
0.0494591
0.0509884
0.0522372
0.0530338
0.0531626
0.0523304
0.0502961
0.0461514
0.0401524
0.0368228
0.0422738
0.0461676
0.0483041
0.0493892
0.0496092
0.0491986
0.0483339
0.0471622
0.045805
0.0443585
0.0428952
0.0414672
0.0401096
0.0388454
0.0376882
0.0366455
0.0357211
0.0349158
0.0342292
0.0336603
0.0332074
0.0328692
0.0326445
0.0325323
0.0325323
0.0326445
0.0328692
0.0332074
0.0336603
0.0342292
0.0349158
0.0357211
0.0366455
0.0376882
0.0388454
0.0401096
0.0414672
0.0428952
0.0443585
0.045805
0.0471622
0.0483339
0.0491986
0.0496092
0.0493892
0.0483041
0.0461676
0.0422738
0.0368228
0.0338932
0.0388433
0.0424833
0.0446536
0.04591
0.0463965
0.0462992
0.0457601
0.0449025
0.0438328
0.04264
0.0413951
0.040152
0.0389492
0.0378135
0.0367625
0.0358072
0.0349542
0.034207
0.0335671
0.0330349
0.0326101
0.0322922
0.0320807
0.031975
0.031975
0.0320807
0.0322922
0.0326101
0.0330349
0.0335671
0.034207
0.0349542
0.0358072
0.0367625
0.0378135
0.0389492
0.040152
0.0413951
0.04264
0.0438328
0.0449025
0.0457601
0.0462992
0.0463965
0.04591
0.0446536
0.0424833
0.0388433
0.0338932
0.0312826
0.0357816
0.0391749
0.0413324
0.0426988
0.0433855
0.0435396
0.0432742
0.0426898
0.0418777
0.040918
0.0398779
0.038811
0.0377578
0.0367478
0.0358018
0.0349335
0.0341522
0.0334635
0.0328708
0.0323759
0.0319797
0.0316825
0.0314844
0.0313854
0.0313854
0.0314844
0.0316825
0.0319797
0.0323759
0.0328708
0.0334635
0.0341522
0.0349335
0.0358018
0.0367478
0.0377578
0.038811
0.0398779
0.040918
0.0418777
0.0426898
0.0432742
0.0435396
0.0433855
0.0426988
0.0413324
0.0391749
0.0357816
0.0312826
0.0289302
0.0330268
0.0361858
0.0382998
0.0397304
0.0405642
0.0409178
0.04088
0.0405315
0.0399483
0.0392007
0.038351
0.0374507
0.036541
0.0356531
0.0348099
0.0340277
0.0333177
0.0326875
0.0321422
0.0316849
0.0313176
0.0310414
0.030857
0.0307647
0.0307647
0.030857
0.0310414
0.0313176
0.0316849
0.0321422
0.0326875
0.0333177
0.0340277
0.0348099
0.0356531
0.036541
0.0374507
0.038351
0.0392007
0.0399483
0.0405315
0.04088
0.0409178
0.0405642
0.0397304
0.0382998
0.0361858
0.0330268
0.0289302
0.0267902
0.0305292
0.0334691
0.0355199
0.0369807
0.0379197
0.0384295
0.0385792
0.0384324
0.0380509
0.0374951
0.0368209
0.036077
0.035304
0.0345337
0.0337907
0.0330928
0.0324532
0.0318812
0.0313832
0.0309636
0.0306253
0.0303702
0.0301996
0.0301141
0.0301141
0.0301996
0.0303702
0.0306253
0.0309636
0.0313832
0.0318812
0.0324532
0.0330928
0.0337907
0.0345337
0.035304
0.036077
0.0368209
0.0374951
0.0380509
0.0384324
0.0385792
0.0384295
0.0379197
0.0369807
0.0355199
0.0334691
0.0305292
0.0267902
0.0248272
0.0282491
0.0309861
0.0329617
0.0344279
0.0354388
0.0360688
0.0363715
0.0363956
0.0361906
0.0358067
0.0352932
0.0346952
0.0340513
0.0333937
0.0327474
0.0321318
0.0315614
0.0310468
0.0305957
0.0302136
0.0299042
0.0296703
0.0295135
0.0294348
0.0294348
0.0295135
0.0296703
0.0299042
0.0302136
0.0305957
0.0310468
0.0315614
0.0321318
0.0327474
0.0333937
0.0340513
0.0346952
0.0352932
0.0358067
0.0361906
0.0363956
0.0363715
0.0360688
0.0354388
0.0344279
0.0329617
0.0309861
0.0282491
0.0248272
0.0230137
0.0261542
0.0287043
0.0305982
0.0320518
0.0331087
0.0338294
0.0342552
0.034423
0.0343709
0.0341401
0.0337728
0.0333096
0.0327872
0.0322366
0.0316833
0.0311474
0.0306445
0.0301863
0.0297815
0.0294365
0.0291559
0.028943
0.0287999
0.0287281
0.0287281
0.0287999
0.028943
0.0291559
0.0294365
0.0297815
0.0301863
0.0306445
0.0311474
0.0316833
0.0322366
0.0327872
0.0333096
0.0337728
0.0341401
0.0343709
0.034423
0.0342552
0.0338294
0.0331087
0.0320518
0.0305982
0.0287043
0.0261542
0.0230137
0.0213278
0.0242183
0.0265968
0.0284064
0.0298344
0.030917
0.031704
0.0322276
0.0325149
0.0325945
0.0324988
0.0322635
0.0319244
0.0315152
0.0310659
0.0306015
0.0301425
0.0297051
0.0293019
0.0289424
0.028634
0.0283818
0.0281897
0.0280603
0.0279951
0.0279951
0.0280603
0.0281897
0.0283818
0.028634
0.0289424
0.0293019
0.0297051
0.0301425
0.0306015
0.0310659
0.0315152
0.0319244
0.0322635
0.0324988
0.0325945
0.0325149
0.0322276
0.031704
0.030917
0.0298344
0.0284064
0.0265968
0.0242183
0.0213278
0.0197518
0.0224198
0.0246411
0.026366
0.0277595
0.028852
0.0296856
0.0302854
0.0306709
0.0308626
0.0308855
0.0307685
0.0305428
0.0302388
0.0298847
0.0295047
0.0291193
0.0287451
0.0283954
0.0280802
0.0278076
0.0275833
0.0274117
0.0272957
0.0272373
0.0272373
0.0272957
0.0274117
0.0275833
0.0278076
0.0280802
0.0283954
0.0287451
0.0291193
0.0295047
0.0298847
0.0302388
0.0305428
0.0307685
0.0308855
0.0308626
0.0306709
0.0302854
0.0296856
0.028852
0.0277595
0.026366
0.0246411
0.0224198
0.0197518
0.0182713
0.0207408
0.0228183
0.0244598
0.0258127
0.026903
0.0277669
0.0284246
0.0288897
0.0291762
0.0293022
0.0292906
0.0291679
0.0289609
0.0286957
0.0283955
0.0280803
0.0277669
0.0274688
0.0271967
0.0269589
0.0267619
0.0266104
0.0265076
0.0264557
0.0264557
0.0265076
0.0266104
0.0267619
0.0269589
0.0271967
0.0274688
0.0277669
0.0280803
0.0283955
0.0286957
0.0289609
0.0291679
0.0292906
0.0293022
0.0291762
0.0288897
0.0284246
0.0277669
0.026903
0.0258127
0.0244598
0.0228183
0.0207408
0.0182713
0.0168746
0.0191663
0.0211122
0.0226729
0.0239811
0.0250598
0.025941
0.0266412
0.0271697
0.0275353
0.0277501
0.0278318
0.0278019
0.027684
0.0275015
0.0272762
0.0270277
0.0267724
0.0265239
0.0262933
0.0260894
0.025919
0.025787
0.0256971
0.0256516
0.0256516
0.0256971
0.025787
0.025919
0.0260894
0.0262933
0.0265239
0.0267724
0.0270277
0.0272762
0.0275015
0.027684
0.0278019
0.0278318
0.0277501
0.0275353
0.0271697
0.0266412
0.025941
0.0250598
0.0239811
0.0226729
0.0211122
0.0191663
0.0168746
0.0155516
0.017684
0.0195092
0.0209923
0.0222533
0.0233134
0.0242012
0.0249309
0.0255088
0.0259394
0.0262302
0.0263937
0.026447
0.0264102
0.0263042
0.0261491
0.0259635
0.0257634
0.0255624
0.0253719
0.0252007
0.0250559
0.024943
0.0248656
0.0248263
0.0248263
0.0248656
0.024943
0.0250559
0.0252007
0.0253719
0.0255624
0.0257634
0.0259635
0.0261491
0.0263042
0.0264102
0.026447
0.0263937
0.0262302
0.0259394
0.0255088
0.0249309
0.0242012
0.0233134
0.0222533
0.0209923
0.0195092
0.017684
0.0155516
0.0142941
0.0162831
0.017998
0.0194067
0.0206194
0.0216554
0.0225412
0.0232895
0.0239045
0.0243877
0.0247426
0.0249773
0.0251048
0.0251416
0.0251059
0.0250161
0.0248895
0.0247417
0.0245861
0.0244338
0.024294
0.0241741
0.0240795
0.0240143
0.023981
0.023981
0.0240143
0.0240795
0.0241741
0.024294
0.0244338
0.0245861
0.0247417
0.0248895
0.0250161
0.0251059
0.0251416
0.0251048
0.0249773
0.0247426
0.0243877
0.0239045
0.0232895
0.0225412
0.0216554
0.0206194
0.0194067
0.017998
0.0162831
0.0142941
0.013095
0.0149548
0.0165684
0.0179066
0.0190704
0.0200781
0.0209549
0.0217126
0.0223543
0.0228791
0.0232874
0.0235835
0.0237765
0.0238796
0.0239082
0.0238789
0.0238076
0.0237091
0.0235964
0.0234806
0.0233709
0.0232748
0.0231979
0.0231443
0.0231169
0.0231169
0.0231443
0.0231979
0.0232748
0.0233709
0.0234806
0.0235964
0.0237091
0.0238076
0.0238789
0.0239082
0.0238796
0.0237765
0.0235835
0.0232874
0.0228791
0.0223543
0.0217126
0.0209549
0.0200781
0.0190704
0.0179066
0.0165684
0.0149548
0.013095
0.0119481
0.0136914
0.0152121
0.0164833
0.0175984
0.0185748
0.0194368
0.0201962
0.0208554
0.0214122
0.0218643
0.0222127
0.0224632
0.0226256
0.0227128
0.0227391
0.0227193
0.022667
0.0225948
0.0225137
0.0224327
0.0223593
0.0222993
0.0222569
0.0222351
0.0222351
0.0222569
0.0222993
0.0223593
0.0224327
0.0225137
0.0225948
0.022667
0.0227193
0.0227391
0.0227128
0.0226256
0.0224632
0.0222127
0.0218643
0.0214122
0.0208554
0.0201962
0.0194368
0.0185748
0.0175984
0.0164833
0.0152121
0.0136914
0.0119481
0.0108483
0.0124862
0.0139218
0.0151295
0.0161962
0.017139
0.0179816
0.0187361
0.019405
0.0199852
0.0204725
0.0208651
0.0211655
0.0213807
0.0215208
0.0215982
0.021626
0.0216169
0.0215828
0.0215344
0.0214806
0.0214288
0.0213849
0.0213533
0.0213368
0.0213368
0.0213533
0.0213849
0.0214288
0.0214806
0.0215344
0.0215828
0.0216169
0.021626
0.0215982
0.0215208
0.0213807
0.0211655
0.0208651
0.0204725
0.0199852
0.019405
0.0187361
0.0179816
0.017139
0.0161962
0.0151295
0.0139218
0.0124862
0.0108483
0.00979098
0.0113338
0.0126912
0.0138387
0.0148578
0.0157651
0.0165844
0.0173285
0.0180004
0.0185966
0.0191112
0.0195405
0.0198839
0.0201457
0.0203335
0.0204574
0.0205291
0.0205601
0.0205617
0.020544
0.0205158
0.0204845
0.020456
0.0204345
0.0204231
0.0204231
0.0204345
0.020456
0.0204845
0.0205158
0.020544
0.0205617
0.0205601
0.0205291
0.0204574
0.0203335
0.0201457
0.0198839
0.0195405
0.0191112
0.0185966
0.0180004
0.0173285
0.0165844
0.0157651
0.0148578
0.0138387
0.0126912
0.0113338
0.00979098
0.00877235
0.0102293
0.0115148
0.0126054
0.0135774
0.0144478
0.0152407
0.0159697
0.0166388
0.0172443
0.0177795
0.0182386
0.0186188
0.0189214
0.0191517
0.0193179
0.0194298
0.0194979
0.0195327
0.0195438
0.0195397
0.0195277
0.0195135
0.0195017
0.019495
0.019495
0.0195017
0.0195135
0.0195277
0.0195397
0.0195438
0.0195327
0.0194979
0.0194298
0.0193179
0.0191517
0.0189214
0.0186188
0.0182386
0.0177795
0.0172443
0.0166388
0.0159697
0.0152407
0.0144478
0.0135774
0.0126054
0.0115148
0.0102293
0.00877235
0.00778899
0.00916848
0.0103881
0.0114245
0.0123502
0.0131824
0.013946
0.014656
0.0153172
0.0159264
0.0164762
0.0169591
0.0173701
0.0177082
0.0179764
0.0181806
0.0183292
0.0184315
0.018497
0.0185348
0.0185532
0.0185592
0.0185586
0.0185558
0.0185536
0.0185536
0.0185558
0.0185586
0.0185592
0.0185532
0.0185348
0.018497
0.0184315
0.0183292
0.0181806
0.0179764
0.0177082
0.0173701
0.0169591
0.0164762
0.0159264
0.0153172
0.014656
0.013946
0.0131824
0.0123502
0.0114245
0.0103881
0.00916848
0.00778899
0.00683804
0.00814801
0.00930709
0.0102918
0.0111716
0.0119645
0.0126965
0.0133839
0.0140329
0.0146409
0.0151999
0.0157012
0.0161378
0.0165066
0.0168081
0.0170465
0.0172284
0.0173619
0.0174557
0.0175183
0.0175575
0.0175803
0.0175923
0.0175979
0.0175999
0.0175999
0.0175979
0.0175923
0.0175803
0.0175575
0.0175183
0.0174557
0.0173619
0.0172284
0.0170465
0.0168081
0.0165066
0.0161378
0.0157012
0.0151999
0.0146409
0.0140329
0.0133839
0.0126965
0.0119645
0.0111716
0.0102918
0.00930709
0.00814801
0.00683804
0.00591709
0.00716496
0.00826837
0.00920343
0.0100375
0.0107899
0.011488
0.01215
0.0127832
0.0133856
0.0139493
0.0144642
0.0149218
0.0153167
0.0156475
0.0159163
0.0161283
0.0162902
0.0164098
0.0164951
0.0165536
0.0165919
0.0166156
0.0166289
0.0166349
0.0166349
0.0166289
0.0166156
0.0165919
0.0165536
0.0164951
0.0164098
0.0162902
0.0161283
0.0159163
0.0156475
0.0153167
0.0149218
0.0144642
0.0139493
0.0133856
0.0127832
0.01215
0.011488
0.0107899
0.0100375
0.00920343
0.00826837
0.00716496
0.00591709
0.00502429
0.00621701
0.00726914
0.00815598
0.00894412
0.00965476
0.0103171
0.0109509
0.0115651
0.0121585
0.0127229
0.0132474
0.0137218
0.0141388
0.014495
0.0147908
0.0150296
0.0152172
0.0153603
0.0154664
0.0155424
0.0155949
0.0156293
0.0156498
0.0156593
0.0156593
0.0156498
0.0156293
0.0155949
0.0155424
0.0154664
0.0153603
0.0152172
0.0150296
0.0147908
0.014495
0.0141388
0.0137218
0.0132474
0.0127229
0.0121585
0.0115651
0.0109509
0.0103171
0.00965476
0.00894412
0.00815598
0.00726914
0.00621701
0.00502429
0.00415833
0.00530247
0.00630708
0.00714644
0.00788801
0.00855537
0.00917989
0.00978334
0.010376
0.0109574
0.0115192
0.0120497
0.0125373
0.0129728
0.0133509
0.0136704
0.0139333
0.0141438
0.0143081
0.0144329
0.0145249
0.0145903
0.0146343
0.0146613
0.0146741
0.0146741
0.0146613
0.0146343
0.0145903
0.0145249
0.0144329
0.0143081
0.0141438
0.0139333
0.0136704
0.0133509
0.0129728
0.0125373
0.0120497
0.0115192
0.0109574
0.010376
0.00978334
0.00917989
0.00855537
0.00788801
0.00714644
0.00630708
0.00530247
0.00415833
0.00331868
0.00442028
0.00538039
0.00617208
0.00686574
0.00748802
0.00807287
0.008644
0.00921306
0.00978005
0.0103366
0.0108702
0.0113678
0.0118187
0.0122157
0.012556
0.0128399
0.0130709
0.0132541
0.0133957
0.0135019
0.0135788
0.0136315
0.0136643
0.0136799
0.0136799
0.0136643
0.0136315
0.0135788
0.0135019
0.0133957
0.0132541
0.0130709
0.0128399
0.012556
0.0122157
0.0118187
0.0113678
0.0108702
0.0103366
0.00978005
0.00921306
0.008644
0.00807287
0.00748802
0.00686574
0.00617208
0.00538039
0.00442028
0.00331868
0.00250583
0.00357013
0.00448769
0.00523035
0.00587396
0.00644903
0.00699236
0.00752954
0.00807334
0.00862421
0.00917355
0.00970793
0.010213
0.0106765
0.0110896
0.0114478
0.0117503
0.0119993
0.0121991
0.0123554
0.0124742
0.0125612
0.0126215
0.0126594
0.0126776
0.0126776
0.0126594
0.0126215
0.0125612
0.0124742
0.0123554
0.0121991
0.0119993
0.0117503
0.0114478
0.0110896
0.0106765
0.010213
0.00970793
0.00917355
0.00862421
0.00807334
0.00752954
0.00699236
0.00644903
0.00587396
0.00523035
0.00448769
0.00357013
0.00250583
0.00172162
0.00275258
0.00362798
0.0043187
0.0049092
0.00543454
0.00593455
0.00643651
0.00695399
0.00748757
0.00802826
0.0085617
0.00907226
0.00954607
0.00997285
0.0103465
0.010665
0.0109296
0.0111439
0.0113129
0.0114425
0.0115382
0.0116052
0.0116474
0.0116677
0.0116677
0.0116474
0.0116052
0.0115382
0.0114425
0.0113129
0.0111439
0.0109296
0.010665
0.0103465
0.00997285
0.00954607
0.00907226
0.0085617
0.00802826
0.00748757
0.00695399
0.00643651
0.00593455
0.00543454
0.0049092
0.0043187
0.00362798
0.00275258
0.00172162
0.000969851
0.00196911
0.00280046
0.00343438
0.00396755
0.00444028
0.00489531
0.00536121
0.00585189
0.00636772
0.00689904
0.00743045
0.00794501
0.00842734
0.00886568
0.00925256
0.00958478
0.00986267
0.0100892
0.0102691
0.0104077
0.0105107
0.0105831
0.0106289
0.010651
0.010651
0.0106289
0.0105831
0.0105107
0.0104077
0.0102691
0.0100892
0.00986267
0.00958478
0.00925256
0.00886568
0.00842734
0.00794501
0.00743045
0.00689904
0.00636772
0.00585189
0.00536121
0.00489531
0.00444028
0.00396755
0.00343438
0.00280046
0.00196911
0.00096985
0.000257529
0.00122286
0.00200476
0.00257445
0.00304481
0.00346168
0.00387027
0.00429977
0.00476384
0.00526216
0.00578409
0.00631305
0.0068307
0.00732023
0.00776841
0.00816654
0.00851032
0.00879932
0.00903598
0.00922463
0.00937057
0.00947932
0.00955591
0.00960451
0.00962806
0.00962806
0.00960451
0.00955591
0.00947932
0.00937057
0.00922463
0.00903598
0.00879932
0.00851032
0.00816654
0.00776841
0.00732023
0.0068307
0.00631305
0.00578409
0.00526216
0.00476384
0.00429977
0.00387027
0.00346168
0.00304481
0.00257445
0.00200476
0.00122286
0.000257529
-0.000402092
0.000520903
0.00124307
0.00173797
0.00213852
0.00249583
0.00285661
0.00324973
0.00368782
0.00416933
0.0046823
0.00520875
0.00572889
0.00622446
0.0066809
0.0070883
0.00744146
0.00773927
0.00798376
0.00817903
0.00833035
0.00844323
0.0085228
0.00857333
0.00859782
0.00859782
0.00857333
0.0085228
0.00844323
0.00833035
0.00817903
0.00798376
0.00773927
0.00744146
0.0070883
0.0066809
0.00622446
0.00572889
0.00520875
0.0046823
0.00416933
0.00368782
0.00324973
0.00285661
0.00249583
0.00213852
0.00173797
0.00124307
0.000520903
-0.000402092
-0.000987547
-0.000125455
0.00052047
0.000926939
0.0012494
0.00154321
0.00185493
0.00221183
0.00262462
0.00308994
0.00359415
0.00411772
0.00463932
0.00513931
0.00560185
0.00601601
0.00637581
0.00667961
0.00692916
0.0071285
0.0072829
0.00739801
0.00747909
0.00753054
0.00755547
0.00755547
0.00753054
0.00747909
0.00739801
0.0072829
0.0071285
0.00692916
0.00667961
0.00637581
0.00601601
0.00560185
0.00513931
0.00463932
0.00411772
0.00359416
0.00308994
0.00262462
0.00221183
0.00185493
0.00154321
0.0012494
0.000926939
0.00052047
-0.000125455
-0.000987547
-0.00148611
-0.000725367
-0.000183186
0.000117593
0.000353592
0.00058177
0.000845868
0.0011698
0.00156123
0.00201424
0.00251307
0.00303631
0.00356105
0.0040662
0.00453475
0.00495486
0.00531994
0.00562802
0.00588074
0.00608221
0.0062379
0.00635368
0.00643505
0.00648659
0.00651155
0.00651155
0.00648659
0.00643505
0.00635368
0.0062379
0.00608221
0.00588074
0.00562802
0.00531994
0.00495486
0.00453475
0.00406619
0.00356105
0.00303631
0.00251307
0.00201424
0.00156123
0.0011698
0.000845869
0.00058177
0.000353592
0.000117593
-0.000183186
-0.000725367
-0.00148611
-0.00192934
-0.00136135
-0.000983181
-0.000817485
-0.000679104
-0.000515122
-0.000288484
1.88608e-05
0.00040957
0.000873478
0.00139116
0.00193806
0.00248856
0.00301936
0.00351174
0.00395272
0.00433509
0.00465674
0.00491953
0.00512806
0.00528839
0.00540701
0.00549001
0.00554241
0.00556778
0.00556778
0.00554241
0.00549001
0.00540701
0.00528839
0.00512806
0.00491953
0.00465674
0.00433509
0.00395272
0.00351174
0.00301936
0.00248856
0.00193806
0.00139116
0.000873478
0.00040957
1.88609e-05
-0.000288484
-0.000515122
-0.000679104
-0.000817485
-0.000983181
-0.00136135
-0.00192934
-0.00222999
-0.00199966
-0.00189355
-0.00191096
-0.00189405
-0.00180217
-0.00160811
-0.00130145
-0.000886337
-0.000379384
0.000193816
0.000802948
0.00141729
0.00200933
0.00255726
0.00304611
0.0034678
0.00382023
0.00410601
0.00433084
0.00450213
0.00462767
0.00471471
0.00476922
0.00479542
0.00479542
0.00476922
0.00471471
0.00462767
0.00450213
0.00433084
0.00410601
0.00382023
0.0034678
0.00304611
0.00255726
0.00200933
0.00141729
0.000802948
0.000193816
-0.000379384
-0.000886337
-0.00130145
-0.00160811
-0.00180216
-0.00189405
-0.00191096
-0.00189355
-0.00199966
-0.00222999
-0.00134363
-0.00139068
-0.00150163
-0.00162994
-0.00170766
-0.0017139
-0.00163281
-0.00145808
-0.00119347
-0.000852091
-0.000454176
-2.38826e-05
0.000414174
0.000837926
0.00122993
0.00157835
0.00187693
0.00212428
0.00232266
0.00247678
0.00259252
0.00267604
0.00273296
0.00276785
0.00278401
0.00278401
0.00276785
0.00273296
0.00267604
0.00259252
0.00247678
0.00232266
0.00212428
0.00187693
0.00157835
0.00122993
0.000837926
0.000414174
-2.38826e-05
-0.000454176
-0.000852091
-0.00119347
-0.00145808
-0.00163281
-0.0017139
-0.00170766
-0.00162994
-0.00150163
-0.00139068
-0.00134363
)
;

boundaryField
{
    left
    {
        type            zeroGradient;
    }
    right
    {
        type            zeroGradient;
    }
    up
    {
        type            fixedValue;
        value           uniform 0;
    }
    down
    {
        type            zeroGradient;
    }
    frontAndBack
    {
        type            empty;
    }
}


// ************************************************************************* //
