/*--------------------------------*- C++ -*----------------------------------*\
  =========                 |
  \\      /  F ield         | OpenFOAM: The Open Source CFD Toolbox
   \\    /   O peration     | Website:  https://openfoam.org
    \\  /    A nd           | Version:  6
     \\/     M anipulation  |
\*---------------------------------------------------------------------------*/
FoamFile
{
    version     2.0;
    format      ascii;
    class       surfaceScalarField;
    location    "3200";
    object      phi;
}
// * * * * * * * * * * * * * * * * * * * * * * * * * * * * * * * * * * * * * //

dimensions      [0 3 -1 0 0 0 0];

internalField   nonuniform List<scalar> 
4900
(
6.52931e-06
7.34707e-05
3.87575e-06
8.26536e-05
2.51794e-06
8.13578e-05
1.68561e-06
8.08323e-05
1.17821e-06
8.05074e-05
8.61726e-07
8.03165e-05
6.53371e-07
8.02084e-05
5.09949e-07
8.01434e-05
4.07389e-07
8.01026e-05
3.31568e-07
8.00758e-05
2.73844e-07
8.00577e-05
2.28724e-07
8.00451e-05
1.926e-07
8.00361e-05
1.63036e-07
8.00296e-05
1.38342e-07
8.00247e-05
1.17319e-07
8.0021e-05
9.90962e-08
8.00182e-05
8.30261e-08
8.00161e-05
6.86179e-08
8.00144e-05
5.54896e-08
8.00131e-05
4.33371e-08
8.00122e-05
3.19109e-08
8.00114e-05
2.1e-08
8.00109e-05
1.04193e-08
8.00106e-05
4.12911e-18
8.00104e-05
-1.04193e-08
8.00104e-05
-2.1e-08
8.00106e-05
-3.19109e-08
8.00109e-05
-4.33371e-08
8.00114e-05
-5.54896e-08
8.00122e-05
-6.86179e-08
8.00131e-05
-8.30261e-08
8.00144e-05
-9.90962e-08
8.00161e-05
-1.17319e-07
8.00182e-05
-1.38342e-07
8.0021e-05
-1.63036e-07
8.00247e-05
-1.926e-07
8.00296e-05
-2.28724e-07
8.00361e-05
-2.73844e-07
8.00451e-05
-3.31568e-07
8.00577e-05
-4.07389e-07
8.00758e-05
-5.09949e-07
8.01026e-05
-6.53371e-07
8.01434e-05
-8.61726e-07
8.02084e-05
-1.17821e-06
8.03165e-05
-1.68561e-06
8.05074e-05
-2.51794e-06
8.08323e-05
-3.87575e-06
8.13578e-05
-6.52931e-06
8.26536e-05
7.34707e-05
9.59997e-06
6.38707e-05
8.98677e-06
8.32668e-05
6.61507e-06
8.37295e-05
4.74085e-06
8.27066e-05
3.45245e-06
8.17958e-05
2.57869e-06
8.11902e-05
1.97625e-06
8.08108e-05
1.55032e-06
8.05694e-05
1.24098e-06
8.04119e-05
1.01031e-06
8.03065e-05
8.33923e-07
8.02341e-05
6.95822e-07
8.01832e-05
5.85255e-07
8.01467e-05
4.94852e-07
8.012e-05
4.19455e-07
8.01001e-05
3.55378e-07
8.00851e-05
2.99932e-07
8.00737e-05
2.5112e-07
8.00649e-05
2.07422e-07
8.00581e-05
1.6766e-07
8.00529e-05
1.30894e-07
8.00489e-05
9.63563e-08
8.0046e-05
6.33984e-08
8.00439e-05
3.14522e-08
8.00425e-05
-5.59105e-17
8.00419e-05
-3.14522e-08
8.00419e-05
-6.33984e-08
8.00425e-05
-9.63563e-08
8.00439e-05
-1.30894e-07
8.0046e-05
-1.6766e-07
8.00489e-05
-2.07422e-07
8.00529e-05
-2.5112e-07
8.00581e-05
-2.99932e-07
8.00649e-05
-3.55378e-07
8.00737e-05
-4.19455e-07
8.00851e-05
-4.94852e-07
8.01001e-05
-5.85255e-07
8.012e-05
-6.95822e-07
8.01467e-05
-8.33923e-07
8.01832e-05
-1.01031e-06
8.02341e-05
-1.24098e-06
8.03065e-05
-1.55032e-06
8.04119e-05
-1.97625e-06
8.05694e-05
-2.57869e-06
8.08108e-05
-3.45245e-06
8.11902e-05
-4.74085e-06
8.17958e-05
-6.61507e-06
8.27066e-05
-8.98677e-06
8.37295e-05
-9.59997e-06
8.32668e-05
6.38707e-05
9.22778e-06
5.46429e-05
1.1127e-05
8.13676e-05
9.35838e-06
8.54981e-05
7.22564e-06
8.48393e-05
5.49285e-06
8.35286e-05
4.20524e-06
8.24779e-05
3.26883e-06
8.17472e-05
2.58492e-06
8.12533e-05
2.0781e-06
8.09187e-05
1.69544e-06
8.06892e-05
1.40064e-06
8.05289e-05
1.16884e-06
8.0415e-05
9.82847e-07
8.03327e-05
8.30655e-07
8.02722e-05
7.0373e-07
8.0227e-05
5.95918e-07
8.01929e-05
5.02704e-07
8.01669e-05
4.20714e-07
8.01469e-05
3.47379e-07
8.01314e-05
2.80704e-07
8.01196e-05
2.19096e-07
8.01105e-05
1.61257e-07
8.01038e-05
1.06087e-07
8.0099e-05
5.26261e-08
8.0096e-05
-3.60797e-17
8.00945e-05
-5.26261e-08
8.00945e-05
-1.06087e-07
8.0096e-05
-1.61257e-07
8.0099e-05
-2.19096e-07
8.01038e-05
-2.80704e-07
8.01105e-05
-3.47379e-07
8.01196e-05
-4.20714e-07
8.01314e-05
-5.02704e-07
8.01469e-05
-5.95918e-07
8.01669e-05
-7.0373e-07
8.01929e-05
-8.30655e-07
8.0227e-05
-9.82847e-07
8.02722e-05
-1.16884e-06
8.03327e-05
-1.40064e-06
8.0415e-05
-1.69544e-06
8.05289e-05
-2.0781e-06
8.06892e-05
-2.58492e-06
8.09187e-05
-3.26883e-06
8.12533e-05
-4.20524e-06
8.17472e-05
-5.49285e-06
8.24779e-05
-7.22564e-06
8.35286e-05
-9.35838e-06
8.48393e-05
-1.1127e-05
8.54981e-05
-9.22778e-06
8.13676e-05
5.46429e-05
8.05546e-06
4.65875e-05
1.14999e-05
7.79231e-05
1.088e-05
8.6118e-05
9.04563e-06
8.66737e-05
7.1971e-06
8.53771e-05
5.66824e-06
8.40067e-05
4.48406e-06
8.29314e-05
3.58427e-06
8.21531e-05
2.90024e-06
8.16028e-05
2.37514e-06
8.12142e-05
1.96626e-06
8.09378e-05
1.64257e-06
8.07387e-05
1.38178e-06
8.05935e-05
1.16789e-06
8.0486e-05
9.89309e-07
8.04056e-05
8.3756e-07
8.03447e-05
7.06367e-07
8.02981e-05
5.91011e-07
8.02622e-05
4.8788e-07
8.02346e-05
3.94159e-07
8.02133e-05
3.07601e-07
8.01971e-05
2.26368e-07
8.0185e-05
1.48909e-07
8.01765e-05
7.38648e-08
8.0171e-05
-2.19486e-17
8.01684e-05
-7.38648e-08
8.01684e-05
-1.48909e-07
8.0171e-05
-2.26368e-07
8.01765e-05
-3.07601e-07
8.0185e-05
-3.94159e-07
8.01971e-05
-4.8788e-07
8.02133e-05
-5.91011e-07
8.02346e-05
-7.06367e-07
8.02622e-05
-8.3756e-07
8.02981e-05
-9.89309e-07
8.03447e-05
-1.16789e-06
8.04056e-05
-1.38178e-06
8.0486e-05
-1.64257e-06
8.05935e-05
-1.96626e-06
8.07387e-05
-2.37514e-06
8.09378e-05
-2.90024e-06
8.12142e-05
-3.58427e-06
8.16028e-05
-4.48406e-06
8.21531e-05
-5.66824e-06
8.29314e-05
-7.1971e-06
8.40067e-05
-9.04563e-06
8.53771e-05
-1.088e-05
8.66737e-05
-1.14999e-05
8.6118e-05
-8.05546e-06
7.79231e-05
4.65875e-05
6.73231e-06
3.98552e-05
1.09641e-05
7.36914e-05
1.14814e-05
8.56006e-05
1.02336e-05
8.79214e-05
8.52678e-06
8.7084e-05
6.92297e-06
8.56105e-05
5.5869e-06
8.42675e-05
4.5239e-06
8.3216e-05
3.69096e-06
8.24357e-05
3.03847e-06
8.18667e-05
2.52343e-06
8.14528e-05
2.112e-06
8.11502e-05
1.77857e-06
8.09269e-05
1.50408e-06
8.07605e-05
1.27439e-06
8.06353e-05
1.07896e-06
8.05401e-05
9.09916e-07
8.04671e-05
7.61247e-07
8.04109e-05
6.28342e-07
8.03675e-05
5.07584e-07
8.0334e-05
3.9608e-07
8.03086e-05
2.91459e-07
8.02897e-05
1.91716e-07
8.02762e-05
9.50956e-08
8.02677e-05
-1.16805e-17
8.02635e-05
-9.50956e-08
8.02635e-05
-1.91716e-07
8.02677e-05
-2.91459e-07
8.02762e-05
-3.9608e-07
8.02897e-05
-5.07584e-07
8.03086e-05
-6.28342e-07
8.0334e-05
-7.61247e-07
8.03675e-05
-9.09916e-07
8.04109e-05
-1.07896e-06
8.04671e-05
-1.27439e-06
8.05401e-05
-1.50408e-06
8.06353e-05
-1.77857e-06
8.07605e-05
-2.112e-06
8.09269e-05
-2.52343e-06
8.11502e-05
-3.03847e-06
8.14528e-05
-3.69096e-06
8.18667e-05
-4.5239e-06
8.24357e-05
-5.5869e-06
8.3216e-05
-6.92297e-06
8.42675e-05
-8.52678e-06
8.56105e-05
-1.02336e-05
8.7084e-05
-1.14814e-05
8.79214e-05
-1.09641e-05
8.56006e-05
-6.73231e-06
7.36914e-05
3.98552e-05
5.48589e-06
3.43693e-05
9.9948e-06
6.91825e-05
1.1443e-05
8.41524e-05
1.08808e-05
8.84837e-05
9.48706e-06
8.84777e-05
7.94856e-06
8.7149e-05
6.55393e-06
8.56621e-05
5.38471e-06
8.43853e-05
4.43624e-06
8.33842e-05
3.67553e-06
8.26274e-05
3.06528e-06
8.20631e-05
2.57234e-06
8.16431e-05
2.16982e-06
8.13294e-05
1.83678e-06
8.10936e-05
1.55718e-06
8.09149e-05
1.31881e-06
8.07785e-05
1.11236e-06
8.06736e-05
9.30667e-07
8.05926e-05
7.68189e-07
8.053e-05
6.20543e-07
8.04817e-05
4.84212e-07
8.04449e-05
3.56301e-07
8.04176e-05
2.34362e-07
8.03982e-05
1.16248e-07
8.03858e-05
-4.99564e-18
8.03797e-05
-1.16248e-07
8.03797e-05
-2.34362e-07
8.03858e-05
-3.56301e-07
8.03982e-05
-4.84212e-07
8.04176e-05
-6.20543e-07
8.04449e-05
-7.68189e-07
8.04817e-05
-9.30667e-07
8.053e-05
-1.11236e-06
8.05926e-05
-1.31881e-06
8.06736e-05
-1.55718e-06
8.07785e-05
-1.83678e-06
8.09149e-05
-2.16982e-06
8.10936e-05
-2.57234e-06
8.13294e-05
-3.06528e-06
8.16431e-05
-3.67553e-06
8.20631e-05
-4.43624e-06
8.26274e-05
-5.38471e-06
8.33842e-05
-6.55393e-06
8.43853e-05
-7.94856e-06
8.56621e-05
-9.48706e-06
8.7149e-05
-1.08808e-05
8.84777e-05
-1.1443e-05
8.84837e-05
-9.9948e-06
8.41524e-05
-5.48589e-06
6.91825e-05
3.43693e-05
4.41173e-06
2.99575e-05
8.87357e-06
6.47206e-05
1.09953e-05
8.20307e-05
1.10977e-05
8.83813e-05
1.011e-05
8.94654e-05
8.74251e-06
8.85165e-05
7.37213e-06
8.70325e-05
6.15293e-06
8.56045e-05
5.12468e-06
8.44124e-05
4.27771e-06
8.34744e-05
3.58551e-06
8.27553e-05
3.01904e-06
8.22096e-05
2.55226e-06
8.17962e-05
2.16362e-06
8.14822e-05
1.83595e-06
8.12426e-05
1.5558e-06
8.10586e-05
1.31271e-06
8.09167e-05
1.09852e-06
8.08068e-05
9.06853e-07
8.07216e-05
7.32607e-07
8.06559e-05
5.71677e-07
8.06058e-05
4.20669e-07
8.05686e-05
2.76703e-07
8.05421e-05
1.3725e-07
8.05252e-05
-6.96024e-19
8.0517e-05
-1.3725e-07
8.0517e-05
-2.76703e-07
8.05252e-05
-4.20669e-07
8.05421e-05
-5.71677e-07
8.05686e-05
-7.32607e-07
8.06058e-05
-9.06853e-07
8.06559e-05
-1.09852e-06
8.07216e-05
-1.31271e-06
8.08068e-05
-1.5558e-06
8.09167e-05
-1.83595e-06
8.10586e-05
-2.16362e-06
8.12426e-05
-2.55226e-06
8.14822e-05
-3.01904e-06
8.17962e-05
-3.58551e-06
8.22096e-05
-4.27771e-06
8.27553e-05
-5.12468e-06
8.34744e-05
-6.15293e-06
8.44124e-05
-7.37213e-06
8.56045e-05
-8.74251e-06
8.70325e-05
-1.011e-05
8.85165e-05
-1.10977e-05
8.94654e-05
-1.09953e-05
8.83813e-05
-8.87357e-06
8.20307e-05
-4.41173e-06
6.47206e-05
2.99575e-05
3.53286e-06
2.64247e-05
7.7596e-06
6.04939e-05
1.03132e-05
7.94771e-05
1.09938e-05
8.77007e-05
1.04423e-05
9.00169e-05
9.31604e-06
8.96428e-05
8.03751e-06
8.8311e-05
6.82007e-06
8.68219e-05
5.74772e-06
8.54848e-05
4.83784e-06
8.43843e-05
4.07858e-06
8.35145e-05
3.44796e-06
8.28402e-05
2.92283e-06
8.23213e-05
2.48234e-06
8.19227e-05
2.109e-06
8.16159e-05
1.78865e-06
8.1379e-05
1.51e-06
8.11953e-05
1.26409e-06
8.10527e-05
1.04378e-06
8.09419e-05
8.43352e-07
8.08564e-05
6.58162e-07
8.0791e-05
4.84341e-07
8.07424e-05
3.18598e-07
8.07079e-05
1.58034e-07
8.06858e-05
1.28869e-18
8.0675e-05
-1.58034e-07
8.0675e-05
-3.18598e-07
8.06858e-05
-4.84341e-07
8.07079e-05
-6.58162e-07
8.07424e-05
-8.43352e-07
8.0791e-05
-1.04378e-06
8.08564e-05
-1.26409e-06
8.09419e-05
-1.51e-06
8.10527e-05
-1.78865e-06
8.11953e-05
-2.109e-06
8.1379e-05
-2.48234e-06
8.16159e-05
-2.92283e-06
8.19227e-05
-3.44796e-06
8.23213e-05
-4.07858e-06
8.28402e-05
-4.83784e-06
8.35145e-05
-5.74772e-06
8.43843e-05
-6.82007e-06
8.54848e-05
-8.03751e-06
8.68219e-05
-9.31604e-06
8.8311e-05
-1.04423e-05
8.96428e-05
-1.09938e-05
9.00169e-05
-1.03132e-05
8.77007e-05
-7.7596e-06
7.94771e-05
-3.53286e-06
6.04939e-05
2.64247e-05
2.8341e-06
2.35906e-05
6.73211e-06
5.65959e-05
9.5202e-06
7.6689e-05
1.06656e-05
8.65553e-05
1.05367e-05
9.01459e-05
9.68962e-06
9.04898e-05
8.55349e-06
8.94471e-05
7.38243e-06
8.7993e-05
6.29966e-06
8.65676e-05
5.35041e-06
8.53335e-05
4.53986e-06
8.43251e-05
3.85547e-06
8.35246e-05
3.27874e-06
8.2898e-05
2.79082e-06
8.24106e-05
2.37475e-06
8.2032e-05
2.01618e-06
8.17375e-05
1.70333e-06
8.15082e-05
1.42665e-06
8.13294e-05
1.17842e-06
8.11902e-05
9.5237e-07
8.10824e-05
7.43364e-07
8.1e-05
5.47103e-07
8.09387e-05
3.59908e-07
8.08951e-05
1.78532e-07
8.08672e-05
1.73263e-18
8.08535e-05
-1.78532e-07
8.08535e-05
-3.59908e-07
8.08672e-05
-5.47103e-07
8.08951e-05
-7.43364e-07
8.09387e-05
-9.5237e-07
8.1e-05
-1.17842e-06
8.10824e-05
-1.42665e-06
8.11902e-05
-1.70333e-06
8.13294e-05
-2.01618e-06
8.15082e-05
-2.37475e-06
8.17375e-05
-2.79082e-06
8.2032e-05
-3.27874e-06
8.24106e-05
-3.85547e-06
8.2898e-05
-4.53986e-06
8.35246e-05
-5.35041e-06
8.43251e-05
-6.29966e-06
8.53335e-05
-7.38243e-06
8.65676e-05
-8.55349e-06
8.7993e-05
-9.68962e-06
8.94471e-05
-1.05367e-05
9.04898e-05
-1.06656e-05
9.01459e-05
-9.5202e-06
8.65553e-05
-6.73211e-06
7.6689e-05
-2.8341e-06
5.65959e-05
2.35906e-05
2.28679e-06
2.13038e-05
5.8228e-06
5.30599e-05
8.69733e-06
7.38144e-05
1.01921e-05
8.50605e-05
1.04447e-05
8.98932e-05
9.88894e-06
9.10456e-05
8.92907e-06
9.0407e-05
7.84048e-06
8.90816e-05
6.7775e-06
8.76305e-05
5.81152e-06
8.62995e-05
4.96568e-06
8.51709e-05
4.23846e-06
8.42518e-05
3.61753e-06
8.3519e-05
3.08715e-06
8.2941e-05
2.63171e-06
8.24874e-05
2.23724e-06
8.2132e-05
1.89182e-06
8.18536e-05
1.58555e-06
8.16356e-05
1.31027e-06
8.14654e-05
1.05927e-06
8.13334e-05
8.26994e-07
8.12323e-05
6.08749e-07
8.11569e-05
4.00502e-07
8.11033e-05
1.9868e-07
8.1069e-05
7.36992e-19
8.10522e-05
-1.9868e-07
8.10522e-05
-4.00502e-07
8.1069e-05
-6.08749e-07
8.11033e-05
-8.26994e-07
8.11569e-05
-1.05927e-06
8.12323e-05
-1.31027e-06
8.13334e-05
-1.58555e-06
8.14654e-05
-1.89182e-06
8.16356e-05
-2.23724e-06
8.18536e-05
-2.63171e-06
8.2132e-05
-3.08715e-06
8.24874e-05
-3.61753e-06
8.2941e-05
-4.23846e-06
8.3519e-05
-4.96568e-06
8.42518e-05
-5.81152e-06
8.51709e-05
-6.7775e-06
8.62995e-05
-7.84048e-06
8.76305e-05
-8.92907e-06
8.90816e-05
-9.88894e-06
9.0407e-05
-1.04447e-05
9.10456e-05
-1.01921e-05
8.98932e-05
-8.69733e-06
8.50605e-05
-5.8228e-06
7.38144e-05
-2.28679e-06
5.30599e-05
2.13038e-05
1.86103e-06
1.94428e-05
5.0375e-06
4.98834e-05
7.89467e-06
7.09573e-05
9.63393e-06
8.33213e-05
1.02135e-05
8.93136e-05
9.94168e-06
9.13174e-05
9.17696e-06
9.11717e-05
8.19801e-06
9.00605e-05
7.18065e-06
8.86479e-05
6.21884e-06
8.72613e-05
5.35334e-06
8.60364e-05
4.59445e-06
8.50107e-05
3.9371e-06
8.41763e-05
3.36964e-06
8.35085e-05
2.87856e-06
8.29785e-05
2.45079e-06
8.25598e-05
2.07466e-06
8.22297e-05
1.74015e-06
8.19701e-05
1.43884e-06
8.17668e-05
1.16369e-06
8.16086e-05
9.08779e-07
8.14872e-05
6.69085e-07
8.13966e-05
4.40256e-07
8.13322e-05
2.18418e-07
8.12908e-05
-1.38043e-18
8.12706e-05
-2.18418e-07
8.12706e-05
-4.40256e-07
8.12908e-05
-6.69085e-07
8.13322e-05
-9.08779e-07
8.13966e-05
-1.16369e-06
8.14872e-05
-1.43884e-06
8.16086e-05
-1.74015e-06
8.17668e-05
-2.07466e-06
8.19701e-05
-2.45079e-06
8.22297e-05
-2.87856e-06
8.25598e-05
-3.36964e-06
8.29785e-05
-3.9371e-06
8.35085e-05
-4.59445e-06
8.41763e-05
-5.35334e-06
8.50107e-05
-6.21884e-06
8.60364e-05
-7.18065e-06
8.72613e-05
-8.19801e-06
8.86479e-05
-9.17696e-06
9.00605e-05
-9.94168e-06
9.11717e-05
-1.02135e-05
9.13174e-05
-9.63393e-06
8.93136e-05
-7.89467e-06
8.33213e-05
-5.0375e-06
7.09573e-05
-1.86103e-06
4.98834e-05
1.94428e-05
1.53031e-06
1.79125e-05
4.36893e-06
4.70448e-05
7.14048e-06
6.81857e-05
9.03584e-06
8.14259e-05
9.8833e-06
8.84662e-05
9.8751e-06
9.13256e-05
9.312e-06
9.17348e-05
8.46131e-06
9.09112e-05
7.51052e-06
8.95987e-05
6.57149e-06
8.82003e-05
5.70107e-06
8.69069e-05
4.92152e-06
8.57902e-05
4.23572e-06
8.48621e-05
3.63684e-06
8.41074e-05
3.11413e-06
8.35012e-05
2.65591e-06
8.3018e-05
2.25111e-06
8.26345e-05
1.88988e-06
8.23314e-05
1.56369e-06
8.20929e-05
1.26528e-06
8.1907e-05
9.88461e-07
8.17641e-05
7.27929e-07
8.16571e-05
4.79053e-07
8.1581e-05
2.37687e-07
8.15322e-05
-4.24859e-18
8.15083e-05
-2.37687e-07
8.15083e-05
-4.79053e-07
8.15322e-05
-7.27929e-07
8.1581e-05
-9.88461e-07
8.16571e-05
-1.26528e-06
8.17641e-05
-1.56369e-06
8.1907e-05
-1.88988e-06
8.20929e-05
-2.25111e-06
8.23314e-05
-2.65591e-06
8.26345e-05
-3.11413e-06
8.3018e-05
-3.63684e-06
8.35012e-05
-4.23572e-06
8.41074e-05
-4.92152e-06
8.48621e-05
-5.70107e-06
8.57902e-05
-6.57149e-06
8.69069e-05
-7.51052e-06
8.82003e-05
-8.46131e-06
8.95987e-05
-9.312e-06
9.09112e-05
-9.8751e-06
9.17348e-05
-9.8833e-06
9.13256e-05
-9.03584e-06
8.84662e-05
-7.14048e-06
8.14259e-05
-4.36893e-06
6.81857e-05
-1.53031e-06
4.70448e-05
1.79125e-05
1.27274e-06
1.66397e-05
3.80417e-06
4.45134e-05
6.44859e-06
6.55413e-05
8.4292e-06
7.94453e-05
9.48713e-06
8.74082e-05
9.71452e-06
9.10983e-05
9.34986e-06
9.20995e-05
8.63837e-06
9.16227e-05
7.77019e-06
9.04669e-05
6.86983e-06
8.91007e-05
6.008e-06
8.77687e-05
5.21839e-06
8.65798e-05
4.51205e-06
8.55685e-05
3.88755e-06
8.47319e-05
3.33739e-06
8.40514e-05
2.85175e-06
8.35036e-05
2.42052e-06
8.30657e-05
2.03423e-06
8.27177e-05
1.68442e-06
8.24428e-05
1.36373e-06
8.22277e-05
1.06581e-06
8.2062e-05
7.85112e-07
8.19378e-05
5.16784e-07
8.18494e-05
2.56436e-07
8.17925e-05
-8.08918e-18
8.17647e-05
-2.56436e-07
8.17647e-05
-5.16784e-07
8.17925e-05
-7.85112e-07
8.18494e-05
-1.06581e-06
8.19378e-05
-1.36373e-06
8.2062e-05
-1.68442e-06
8.22277e-05
-2.03423e-06
8.24428e-05
-2.42052e-06
8.27177e-05
-2.85175e-06
8.30657e-05
-3.33739e-06
8.35036e-05
-3.88755e-06
8.40514e-05
-4.51205e-06
8.47319e-05
-5.21839e-06
8.55685e-05
-6.008e-06
8.65798e-05
-6.86983e-06
8.77687e-05
-7.77019e-06
8.91007e-05
-8.63837e-06
9.04669e-05
-9.34986e-06
9.16227e-05
-9.71452e-06
9.20995e-05
-9.48713e-06
9.10983e-05
-8.4292e-06
8.74082e-05
-6.44859e-06
7.94453e-05
-3.80417e-06
6.55413e-05
-1.27274e-06
4.45134e-05
1.66397e-05
1.07097e-06
1.55688e-05
3.32863e-06
4.22557e-05
5.82359e-06
6.30463e-05
7.835e-06
7.74339e-05
9.05119e-06
8.61921e-05
9.48247e-06
9.0667e-05
9.30607e-06
9.22759e-05
8.73816e-06
9.21906e-05
7.96393e-06
9.12411e-05
7.1153e-06
8.99493e-05
6.27405e-06
8.86099e-05
5.48428e-06
8.73696e-05
4.76512e-06
8.62876e-05
4.1208e-06
8.53762e-05
3.54749e-06
8.46247e-05
3.03762e-06
8.40135e-05
2.5823e-06
8.35211e-05
2.17271e-06
8.31273e-05
1.80064e-06
8.28148e-05
1.45875e-06
8.25695e-05
1.1406e-06
8.23801e-05
8.40482e-07
8.22379e-05
5.5335e-07
8.21365e-05
2.74615e-07
8.20713e-05
-1.21104e-17
8.20394e-05
-2.74615e-07
8.20394e-05
-5.5335e-07
8.20713e-05
-8.40482e-07
8.21365e-05
-1.1406e-06
8.22379e-05
-1.45875e-06
8.23801e-05
-1.80064e-06
8.25695e-05
-2.17271e-06
8.28148e-05
-2.5823e-06
8.31273e-05
-3.03762e-06
8.35211e-05
-3.54749e-06
8.40135e-05
-4.1208e-06
8.46247e-05
-4.76512e-06
8.53762e-05
-5.48428e-06
8.62876e-05
-6.27405e-06
8.73696e-05
-7.1153e-06
8.86099e-05
-7.96393e-06
8.99493e-05
-8.73816e-06
9.12411e-05
-9.30607e-06
9.21906e-05
-9.48247e-06
9.22759e-05
-9.05119e-06
9.0667e-05
-7.835e-06
8.61921e-05
-5.82359e-06
7.74339e-05
-3.32863e-06
6.30463e-05
-1.07097e-06
4.22557e-05
1.55688e-05
9.11635e-07
1.46571e-05
2.92826e-06
4.02391e-05
5.26459e-06
6.071e-05
7.26647e-06
7.5432e-05
8.59551e-06
8.4863e-05
9.19827e-06
9.00642e-05
9.19533e-06
9.22788e-05
8.77009e-06
9.26158e-05
8.09691e-06
9.19143e-05
7.31019e-06
9.07361e-05
6.49986e-06
8.94203e-05
5.71897e-06
8.81505e-05
4.99434e-06
8.70123e-05
4.3359e-06
8.60346e-05
3.74377e-06
8.52168e-05
3.21291e-06
8.45444e-05
2.73596e-06
8.3998e-05
2.30492e-06
8.35583e-05
1.91203e-06
8.32077e-05
1.55009e-06
8.29315e-05
1.21264e-06
8.27176e-05
8.93899e-07
8.25567e-05
5.88663e-07
8.24417e-05
2.9218e-07
8.23678e-05
-1.72606e-17
8.23315e-05
-2.9218e-07
8.23315e-05
-5.88663e-07
8.23678e-05
-8.93899e-07
8.24417e-05
-1.21264e-06
8.25567e-05
-1.55009e-06
8.27176e-05
-1.91203e-06
8.29315e-05
-2.30492e-06
8.32077e-05
-2.73596e-06
8.35583e-05
-3.21291e-06
8.3998e-05
-3.74377e-06
8.45444e-05
-4.3359e-06
8.52168e-05
-4.99434e-06
8.60346e-05
-5.71897e-06
8.70123e-05
-6.49986e-06
8.81505e-05
-7.31019e-06
8.94203e-05
-8.09691e-06
9.07361e-05
-8.77009e-06
9.19143e-05
-9.19533e-06
9.26158e-05
-9.19827e-06
9.22788e-05
-8.59551e-06
9.00642e-05
-7.26647e-06
8.4863e-05
-5.26459e-06
7.5432e-05
-2.92826e-06
6.071e-05
-9.11635e-07
4.02391e-05
1.46571e-05
7.84586e-07
1.38725e-05
2.59046e-06
3.84332e-05
4.76763e-06
5.85328e-05
6.73122e-06
7.34684e-05
8.13497e-06
8.34593e-05
8.87806e-06
8.93211e-05
9.03106e-06
9.21258e-05
8.74354e-06
9.29034e-05
8.17478e-06
9.2483e-05
7.45744e-06
9.14534e-05
6.68662e-06
9.01911e-05
5.92269e-06
8.89144e-05
5.19943e-06
8.77355e-05
4.53238e-06
8.67017e-05
3.92571e-06
8.58235e-05
3.37714e-06
8.50929e-05
2.88106e-06
8.44941e-05
2.43052e-06
8.40088e-05
2.01831e-06
8.36199e-05
1.63752e-06
8.33123e-05
1.28177e-06
8.30733e-05
9.4524e-07
8.28932e-05
6.22642e-07
8.27643e-05
3.09094e-07
8.26813e-05
-2.21364e-17
8.26406e-05
-3.09094e-07
8.26406e-05
-6.22642e-07
8.26813e-05
-9.4524e-07
8.27643e-05
-1.28177e-06
8.28932e-05
-1.63752e-06
8.30733e-05
-2.01831e-06
8.33123e-05
-2.43052e-06
8.36199e-05
-2.88106e-06
8.40088e-05
-3.37714e-06
8.44941e-05
-3.92571e-06
8.50929e-05
-4.53238e-06
8.58235e-05
-5.19943e-06
8.67017e-05
-5.92269e-06
8.77355e-05
-6.68662e-06
8.89144e-05
-7.45744e-06
9.01911e-05
-8.17478e-06
9.14534e-05
-8.74354e-06
9.2483e-05
-9.03106e-06
9.29034e-05
-8.87806e-06
9.21258e-05
-8.13497e-06
8.93211e-05
-6.73122e-06
8.34593e-05
-4.76763e-06
7.34684e-05
-2.59046e-06
5.85328e-05
-7.84586e-07
3.84332e-05
1.38725e-05
6.82187e-07
1.31903e-05
2.30441e-06
3.6811e-05
4.32728e-06
5.651e-05
6.23294e-06
7.15628e-05
7.68024e-06
8.2012e-05
8.53497e-06
8.84664e-05
8.82518e-06
9.18356e-05
8.66751e-06
9.3061e-05
8.20346e-06
9.29471e-05
7.56049e-06
9.20964e-05
6.83603e-06
9.09156e-05
6.09607e-06
8.96544e-05
5.38045e-06
8.84511e-05
4.71e-06
8.73721e-05
4.09297e-06
8.64405e-05
3.52996e-06
8.56559e-05
3.01728e-06
8.50068e-05
2.54921e-06
8.44769e-05
2.11924e-06
8.40499e-05
1.72086e-06
8.37107e-05
1.34784e-06
8.34464e-05
9.944e-07
8.32466e-05
6.55217e-07
8.31035e-05
3.25321e-07
8.30112e-05
-2.85424e-17
8.2966e-05
-3.25321e-07
8.2966e-05
-6.55217e-07
8.30112e-05
-9.944e-07
8.31035e-05
-1.34784e-06
8.32466e-05
-1.72086e-06
8.34464e-05
-2.11924e-06
8.37107e-05
-2.54921e-06
8.40499e-05
-3.01728e-06
8.44769e-05
-3.52996e-06
8.50068e-05
-4.09297e-06
8.56559e-05
-4.71e-06
8.64405e-05
-5.38045e-06
8.73721e-05
-6.09607e-06
8.84511e-05
-6.83603e-06
8.96544e-05
-7.56049e-06
9.09156e-05
-8.20346e-06
9.20964e-05
-8.66751e-06
9.29471e-05
-8.82518e-06
9.3061e-05
-8.53497e-06
9.18356e-05
-7.68024e-06
8.84664e-05
-6.23294e-06
8.2012e-05
-4.32728e-06
7.15628e-05
-2.30441e-06
5.651e-05
-6.82187e-07
3.6811e-05
1.31903e-05
5.98723e-07
1.25916e-05
2.06104e-06
3.53486e-05
3.93761e-06
5.46334e-05
5.7727e-06
6.97277e-05
7.23869e-06
8.0546e-05
8.17945e-06
8.75256e-05
8.58805e-06
9.1427e-05
8.55042e-06
9.30987e-05
8.18888e-06
9.33086e-05
7.62303e-06
9.26622e-05
6.95016e-06
9.15884e-05
6.24007e-06
9.03645e-05
5.53771e-06
8.91535e-05
4.86873e-06
8.80411e-05
4.24535e-06
8.70639e-05
3.6711e-06
8.62302e-05
3.14437e-06
8.55335e-05
2.66076e-06
8.49605e-05
2.21463e-06
8.4496e-05
1.79994e-06
8.41253e-05
1.41071e-06
8.38356e-05
1.04129e-06
8.36161e-05
6.86331e-07
8.34585e-05
3.40831e-07
8.33567e-05
-3.42816e-17
8.33068e-05
-3.40831e-07
8.33068e-05
-6.86331e-07
8.33567e-05
-1.04129e-06
8.34585e-05
-1.41071e-06
8.36161e-05
-1.79994e-06
8.38356e-05
-2.21463e-06
8.41253e-05
-2.66076e-06
8.4496e-05
-3.14437e-06
8.49605e-05
-3.6711e-06
8.55335e-05
-4.24535e-06
8.62302e-05
-4.86873e-06
8.70639e-05
-5.53771e-06
8.80411e-05
-6.24007e-06
8.91535e-05
-6.95016e-06
9.03645e-05
-7.62303e-06
9.15884e-05
-8.18888e-06
9.26622e-05
-8.55042e-06
9.33086e-05
-8.58805e-06
9.30987e-05
-8.17945e-06
9.1427e-05
-7.23869e-06
8.75256e-05
-5.7727e-06
8.0546e-05
-3.93761e-06
6.97277e-05
-2.06104e-06
5.46334e-05
-5.98723e-07
3.53486e-05
1.25916e-05
5.29919e-07
1.20617e-05
1.85288e-06
3.40257e-05
3.59274e-06
5.28936e-05
5.34984e-06
6.79706e-05
6.81514e-06
7.90807e-05
7.81962e-06
8.65211e-05
8.32849e-06
9.09181e-05
8.39994e-06
9.30272e-05
8.13681e-06
9.35717e-05
7.64893e-06
9.31501e-05
7.03133e-06
9.2206e-05
6.35596e-06
9.10398e-05
5.67178e-06
8.98377e-05
5.00875e-06
8.87041e-05
4.38281e-06
8.76898e-05
3.80044e-06
8.68126e-05
3.26214e-06
8.60718e-05
2.765e-06
8.54577e-05
2.30432e-06
8.49567e-05
1.87463e-06
8.4555e-05
1.4703e-06
8.42399e-05
1.08582e-06
8.40005e-05
7.15933e-07
8.38284e-05
3.55602e-07
8.3717e-05
-4.22455e-17
8.36624e-05
-3.55602e-07
8.36624e-05
-7.15933e-07
8.3717e-05
-1.08582e-06
8.38284e-05
-1.4703e-06
8.40005e-05
-1.87463e-06
8.42399e-05
-2.30432e-06
8.4555e-05
-2.765e-06
8.49567e-05
-3.26214e-06
8.54577e-05
-3.80044e-06
8.60718e-05
-4.38281e-06
8.68126e-05
-5.00875e-06
8.76898e-05
-5.67178e-06
8.87041e-05
-6.35596e-06
8.98377e-05
-7.03133e-06
9.10398e-05
-7.64893e-06
9.2206e-05
-8.13681e-06
9.31501e-05
-8.39994e-06
9.35717e-05
-8.32849e-06
9.30272e-05
-7.81962e-06
9.09181e-05
-6.81514e-06
8.65211e-05
-5.34984e-06
7.90807e-05
-3.59274e-06
6.79706e-05
-1.85288e-06
5.28936e-05
-5.29919e-07
3.40257e-05
1.20617e-05
4.7257e-07
1.15891e-05
1.67383e-06
3.28244e-05
3.28718e-06
5.12802e-05
4.9627e-06
6.62951e-05
6.41251e-06
7.76309e-05
7.46167e-06
8.5472e-05
8.05386e-06
9.03259e-05
8.22293e-06
9.28581e-05
8.05273e-06
9.37419e-05
7.6421e-06
9.35607e-05
7.08206e-06
9.27661e-05
6.44521e-06
9.16767e-05
5.78344e-06
9.04995e-05
5.13038e-06
8.93572e-05
4.50543e-06
8.83148e-05
3.91791e-06
8.74001e-05
3.3705e-06
8.66192e-05
2.86181e-06
8.59663e-05
2.38819e-06
8.54303e-05
1.94483e-06
8.49984e-05
1.52652e-06
8.46582e-05
1.12795e-06
8.43991e-05
7.43984e-07
8.42123e-05
3.69613e-07
8.40914e-05
-4.92428e-17
8.4032e-05
-3.69613e-07
8.4032e-05
-7.43984e-07
8.40914e-05
-1.12795e-06
8.42123e-05
-1.52652e-06
8.43991e-05
-1.94483e-06
8.46582e-05
-2.38819e-06
8.49984e-05
-2.86181e-06
8.54303e-05
-3.3705e-06
8.59663e-05
-3.91791e-06
8.66192e-05
-4.50543e-06
8.74001e-05
-5.13038e-06
8.83148e-05
-5.78344e-06
8.93572e-05
-6.44521e-06
9.04995e-05
-7.08206e-06
9.16767e-05
-7.6421e-06
9.27661e-05
-8.05273e-06
9.35607e-05
-8.22293e-06
9.37419e-05
-8.05386e-06
9.28581e-05
-7.46167e-06
9.03259e-05
-6.41251e-06
8.5472e-05
-4.9627e-06
7.76309e-05
-3.28718e-06
6.62951e-05
-1.67383e-06
5.12802e-05
-4.7257e-07
3.28244e-05
1.15891e-05
4.24264e-07
1.11649e-05
1.51893e-06
3.17298e-05
3.01597e-06
4.97832e-05
4.60902e-06
6.4702e-05
6.03233e-06
7.62076e-05
7.11019e-06
8.43941e-05
7.77023e-06
8.96659e-05
8.02544e-06
9.26029e-05
7.94175e-06
9.38256e-05
7.60635e-06
9.38961e-05
7.10496e-06
9.32675e-05
6.50944e-06
9.22722e-05
5.87362e-06
9.11353e-05
5.23411e-06
8.99967e-05
4.61342e-06
8.89354e-05
4.02359e-06
8.79899e-05
3.46942e-06
8.71734e-05
2.95113e-06
8.64846e-05
2.46617e-06
8.59153e-05
2.01048e-06
8.54541e-05
1.5793e-06
8.50894e-05
1.16763e-06
8.48108e-05
7.70454e-07
8.46095e-05
3.82849e-07
8.4479e-05
-5.93084e-17
8.44148e-05
-3.82849e-07
8.44148e-05
-7.70454e-07
8.4479e-05
-1.16763e-06
8.46095e-05
-1.5793e-06
8.48108e-05
-2.01048e-06
8.50894e-05
-2.46617e-06
8.54541e-05
-2.95113e-06
8.59153e-05
-3.46942e-06
8.64846e-05
-4.02359e-06
8.71734e-05
-4.61342e-06
8.79899e-05
-5.23411e-06
8.89354e-05
-5.87362e-06
8.99967e-05
-6.50944e-06
9.11353e-05
-7.10496e-06
9.22722e-05
-7.60635e-06
9.32675e-05
-7.94175e-06
9.38961e-05
-8.02544e-06
9.38256e-05
-7.77023e-06
9.26029e-05
-7.11019e-06
8.96659e-05
-6.03233e-06
8.43941e-05
-4.60902e-06
7.62076e-05
-3.01597e-06
6.4702e-05
-1.51893e-06
4.97832e-05
-4.24264e-07
3.17298e-05
1.11649e-05
3.83173e-07
1.07817e-05
1.38417e-06
3.07288e-05
2.77469e-06
4.83926e-05
4.28627e-06
6.31904e-05
5.67514e-06
7.48187e-05
6.76847e-06
8.33008e-05
7.4825e-06
8.89519e-05
7.81272e-06
9.22727e-05
7.80853e-06
9.38298e-05
7.54538e-06
9.41593e-05
7.10268e-06
9.37102e-05
6.55042e-06
9.28245e-05
5.9434e-06
9.17423e-05
5.32055e-06
9.06195e-05
4.7071e-06
8.95489e-05
4.11759e-06
8.85794e-05
3.55893e-06
8.7732e-05
3.03295e-06
8.70106e-05
2.53823e-06
8.641e-05
2.07154e-06
8.59208e-05
1.62863e-06
8.55323e-05
1.20483e-06
8.52346e-05
7.95321e-07
8.5019e-05
3.95299e-07
8.4879e-05
-6.80879e-17
8.48101e-05
-3.95299e-07
8.48101e-05
-7.95321e-07
8.4879e-05
-1.20483e-06
8.5019e-05
-1.62863e-06
8.52346e-05
-2.07154e-06
8.55323e-05
-2.53823e-06
8.59208e-05
-3.03295e-06
8.641e-05
-3.55893e-06
8.70106e-05
-4.11759e-06
8.7732e-05
-4.7071e-06
8.85794e-05
-5.32055e-06
8.95489e-05
-5.9434e-06
9.06195e-05
-6.55042e-06
9.17423e-05
-7.10268e-06
9.28245e-05
-7.54538e-06
9.37102e-05
-7.80853e-06
9.41593e-05
-7.81272e-06
9.38298e-05
-7.4825e-06
9.22727e-05
-6.76847e-06
8.89519e-05
-5.67514e-06
8.33008e-05
-4.28627e-06
7.48187e-05
-2.77469e-06
6.31904e-05
-1.38417e-06
4.83926e-05
-3.83173e-07
3.07288e-05
1.07817e-05
3.47902e-07
1.04338e-05
1.26627e-06
2.98104e-05
2.5595e-06
4.70994e-05
3.99187e-06
6.17581e-05
5.34077e-06
7.34698e-05
6.43881e-06
8.22027e-05
7.1946e-06
8.81961e-05
7.58926e-06
9.1878e-05
7.65732e-06
9.37618e-05
7.46267e-06
9.43539e-05
7.07783e-06
9.4095e-05
6.56997e-06
9.33323e-05
5.99396e-06
9.23183e-05
5.39042e-06
9.12231e-05
4.78686e-06
9.01525e-05
4.20013e-06
8.91662e-05
3.63914e-06
8.8293e-05
3.10729e-06
8.75425e-05
2.60437e-06
8.69129e-05
2.12798e-06
8.63972e-05
1.67447e-06
8.59858e-05
1.23952e-06
8.56695e-05
8.18575e-07
8.544e-05
4.06958e-07
8.52906e-05
-8.09418e-17
8.52171e-05
-4.06958e-07
8.52171e-05
-8.18575e-07
8.52906e-05
-1.23952e-06
8.544e-05
-1.67447e-06
8.56695e-05
-2.12798e-06
8.59858e-05
-2.60437e-06
8.63972e-05
-3.10729e-06
8.69129e-05
-3.63914e-06
8.75425e-05
-4.20013e-06
8.8293e-05
-4.78686e-06
8.91662e-05
-5.39042e-06
9.01525e-05
-5.99396e-06
9.12231e-05
-6.56997e-06
9.23183e-05
-7.07783e-06
9.33323e-05
-7.46267e-06
9.4095e-05
-7.65732e-06
9.43539e-05
-7.58926e-06
9.37618e-05
-7.1946e-06
9.1878e-05
-6.43881e-06
8.81961e-05
-5.34077e-06
8.22027e-05
-3.99187e-06
7.34698e-05
-2.5595e-06
6.17581e-05
-1.26627e-06
4.70994e-05
-3.47902e-07
2.98104e-05
1.04338e-05
3.17379e-07
1.01164e-05
1.1626e-06
2.89652e-05
2.36705e-06
4.5895e-05
3.7233e-06
6.04018e-05
5.02861e-06
7.21645e-05
6.1227e-06
8.11087e-05
6.90958e-06
8.74092e-05
7.35886e-06
9.14288e-05
7.49188e-06
9.36287e-05
7.3615e-06
9.44843e-05
7.03295e-06
9.44235e-05
6.56991e-06
9.37954e-05
6.02654e-06
9.28617e-05
5.44451e-06
9.18051e-05
4.8532e-06
9.07438e-05
4.2715e-06
8.97479e-05
3.71019e-06
8.88543e-05
3.17423e-06
8.80784e-05
2.66462e-06
8.74225e-05
2.17983e-06
8.6882e-05
1.71682e-06
8.64488e-05
1.27172e-06
8.61146e-05
8.40211e-07
8.58715e-05
4.17822e-07
8.5713e-05
-9.21677e-17
8.56349e-05
-4.17822e-07
8.56349e-05
-8.40211e-07
8.5713e-05
-1.27172e-06
8.58715e-05
-1.71682e-06
8.61146e-05
-2.17983e-06
8.64488e-05
-2.66462e-06
8.6882e-05
-3.17423e-06
8.74225e-05
-3.71019e-06
8.80784e-05
-4.2715e-06
8.88543e-05
-4.8532e-06
8.97479e-05
-5.44451e-06
9.07438e-05
-6.02654e-06
9.18051e-05
-6.56991e-06
9.28617e-05
-7.03295e-06
9.37954e-05
-7.3615e-06
9.44235e-05
-7.49188e-06
9.44843e-05
-7.35886e-06
9.36287e-05
-6.90958e-06
9.14288e-05
-6.1227e-06
8.74092e-05
-5.02861e-06
8.11087e-05
-3.7233e-06
7.21645e-05
-2.36705e-06
6.04018e-05
-1.1626e-06
4.5895e-05
-3.17379e-07
2.89652e-05
1.01164e-05
2.90768e-07
9.82565e-06
1.07099e-06
2.81849e-05
2.19447e-06
4.47715e-05
3.47816e-06
5.91181e-05
4.73774e-06
7.09049e-05
5.82102e-06
8.00254e-05
6.62982e-06
8.66004e-05
7.1247e-06
9.09339e-05
7.31554e-06
9.34379e-05
7.24486e-06
9.4555e-05
6.97051e-06
9.46979e-05
6.5521e-06
9.42138e-05
6.04245e-06
9.33713e-05
5.48371e-06
9.23638e-05
4.90667e-06
9.13208e-05
4.33203e-06
9.03225e-05
3.77229e-06
8.94141e-05
3.2339e-06
8.86168e-05
2.71905e-06
8.79374e-05
2.22712e-06
8.73739e-05
1.75571e-06
8.69202e-05
1.30141e-06