/*--------------------------------*- C++ -*----------------------------------*\
  =========                 |
  \\      /  F ield         | OpenFOAM: The Open Source CFD Toolbox
   \\    /   O peration     | Website:  https://openfoam.org
    \\  /    A nd           | Version:  6
     \\/     M anipulation  |
\*---------------------------------------------------------------------------*/
FoamFile
{
    version     2.0;
    format      ascii;
    class       volScalarField;
    location    "0";
    object      Cx;
}
// * * * * * * * * * * * * * * * * * * * * * * * * * * * * * * * * * * * * * //

dimensions      [0 1 0 0 0 0 0];

internalField   nonuniform List<scalar> 
2500
(
-0.488498
-0.46856
-0.448621
-0.428682
-0.408743
-0.388805
-0.368866
-0.348927
-0.328989
-0.30905
-0.289111
-0.269172
-0.249234
-0.229295
-0.209356
-0.189418
-0.169479
-0.14954
-0.129602
-0.109663
-0.0897242
-0.0697855
-0.0498468
-0.0299081
-0.00996935
0.00996935
0.0299081
0.0498468
0.0697855
0.0897242
0.109663
0.129602
0.14954
0.169479
0.189418
0.209356
0.229295
0.249234
0.269172
0.289111
0.30905
0.328989
0.348927
0.368866
0.388805
0.408743
0.428682
0.448621
0.46856
0.488498
-0.485497
-0.46568
-0.445864
-0.426048
-0.406232
-0.386416
-0.3666
-0.346783
-0.326967
-0.307151
-0.287335
-0.267519
-0.247702
-0.227886
-0.20807
-0.188254
-0.168438
-0.148621
-0.128805
-0.108989
-0.0891729
-0.0693567
-0.0495405
-0.0297243
-0.0099081
0.0099081
0.0297243
0.0495405
0.0693567
0.0891729
0.108989
0.128805
0.148621
0.168438
0.188254
0.20807
0.227886
0.247702
0.267519
0.287335
0.307151
0.326967
0.346783
0.3666
0.386416
0.406232
0.426048
0.445864
0.46568
0.485497
-0.482511
-0.462816
-0.443122
-0.423428
-0.403733
-0.384039
-0.364345
-0.34465
-0.324956
-0.305262
-0.285568
-0.265873
-0.246179
-0.226485
-0.20679
-0.187096
-0.167402
-0.147707
-0.128013
-0.108319
-0.0886244
-0.0689301
-0.0492358
-0.0295415
-0.00984716
0.00984716
0.0295415
0.0492358
0.0689301
0.0886244
0.108319
0.128013
0.147707
0.167402
0.187096
0.20679
0.226485
0.246179
0.265873
0.285568
0.305262
0.324956
0.34465
0.364345
0.384039
0.403733
0.423428
0.443122
0.462816
0.482511
-0.47955
-0.459977
-0.440403
-0.42083
-0.401256
-0.381683
-0.36211
-0.342536
-0.322963
-0.303389
-0.283816
-0.264242
-0.244669
-0.225095
-0.205522
-0.185948
-0.166375
-0.146801
-0.127228
-0.107654
-0.0880807
-0.0685072
-0.0489337
-0.0293602
-0.00978674
0.00978674
0.0293602
0.0489337
0.0685072
0.0880807
0.107654
0.127228
0.146801
0.166375
0.185948
0.205522
0.225095
0.244669
0.264242
0.283816
0.303389
0.322963
0.342536
0.36211
0.381683
0.401256
0.42083
0.440403
0.459977
0.47955
-0.476626
-0.457172
-0.437718
-0.418264
-0.39881
-0.379356
-0.359902
-0.340447
-0.320993
-0.301539
-0.282085
-0.262631
-0.243177
-0.223723
-0.204268
-0.184814
-0.16536
-0.145906
-0.126452
-0.106998
-0.0875436
-0.0680895
-0.0486353
-0.0291812
-0.00972707
0.00972707
0.0291812
0.0486353
0.0680895
0.0875436
0.106998
0.126452
0.145906
0.16536
0.184814
0.204268
0.223723
0.243177
0.262631
0.282085
0.301539
0.320993
0.340447
0.359902
0.379356
0.39881
0.418264
0.437718
0.457172
0.476626
-0.473749
-0.454412
-0.435075
-0.415739
-0.396402
-0.377065
-0.357729
-0.338392
-0.319055
-0.299719
-0.280382
-0.261045
-0.241709
-0.222372
-0.203035
-0.183699
-0.164362
-0.145025
-0.125688
-0.106352
-0.0870151
-0.0676784
-0.0483417
-0.029005
-0.00966834
0.00966834
0.029005
0.0483417
0.0676784
0.0870151
0.106352
0.125688
0.145025
0.164362
0.183699
0.203035
0.222372
0.241709
0.261045
0.280382
0.299719
0.319055
0.338392
0.357729
0.377065
0.396402
0.415739
0.435075
0.454412
0.473749
-0.470928
-0.451707
-0.432485
-0.413264
-0.394042
-0.37482
-0.355599
-0.336377
-0.317156
-0.297934
-0.278713
-0.259491
-0.240269
-0.221048
-0.201826
-0.182605
-0.163383
-0.144162
-0.12494
-0.105719
-0.086497
-0.0672755
-0.0480539
-0.0288323
-0.00961078
0.00961078
0.0288323
0.0480539
0.0672755
0.086497
0.105719
0.12494
0.144162
0.163383
0.182605
0.201826
0.221048
0.240269
0.259491
0.278713
0.297934
0.317156
0.336377
0.355599
0.37482
0.394042
0.413264
0.432485
0.451707
0.470928
-0.468175
-0.449066
-0.429956
-0.410847
-0.391738
-0.372629
-0.35352
-0.334411
-0.315301
-0.296192
-0.277083
-0.257974
-0.238865
-0.219756
-0.200646
-0.181537
-0.162428
-0.143319
-0.12421
-0.1051
-0.0859913
-0.0668821
-0.0477729
-0.0286638
-0.00955459
0.00955459
0.0286638
0.0477729
0.0668821
0.0859913
0.1051
0.12421
0.143319
0.162428
0.181537
0.200646
0.219756
0.238865
0.257974
0.277083
0.296192
0.315301
0.334411
0.35352
0.372629
0.391738
0.410847
0.429956
0.449066
0.468175
-0.465499
-0.446499
-0.427499
-0.408499
-0.389499
-0.370499
-0.351499
-0.332499
-0.313499
-0.294499
-0.275499
-0.2565
-0.2375
-0.2185
-0.1995
-0.1805
-0.1615
-0.1425
-0.1235
-0.1045
-0.0854998
-0.0664999
-0.0474999
-0.0284999
-0.00949998
0.00949998
0.0284999
0.0474999
0.0664999
0.0854998
0.1045
0.1235
0.1425
0.1615
0.1805
0.1995
0.2185
0.2375
0.2565
0.275499
0.294499
0.313499
0.332499
0.351499
0.370499
0.389499
0.408499
0.427499
0.446499
0.465499
-0.462911
-0.444017
-0.425123
-0.406228
-0.387334
-0.36844
-0.349545
-0.330651
-0.311757
-0.292862
-0.273968
-0.255074
-0.236179
-0.217285
-0.198391
-0.179496
-0.160602
-0.141708
-0.122813
-0.103919
-0.0850245
-0.0661302
-0.0472359
-0.0283415
-0.00944717
0.00944717
0.0283415
0.0472359
0.0661302
0.0850245
0.103919
0.122813
0.141708
0.160602
0.179496
0.198391
0.217285
0.236179
0.255074
0.273968
0.292862
0.311757
0.330651
0.349545
0.36844
0.387334
0.406228
0.425123
0.444017
0.462911
-0.460422
-0.441629
-0.422836
-0.404044
-0.385251
-0.366458
-0.347665
-0.328873
-0.31008
-0.291287
-0.272495
-0.253702
-0.234909
-0.216116
-0.197324
-0.178531
-0.159738
-0.140945
-0.122153
-0.10336
-0.0845673
-0.0657746
-0.0469818
-0.0281891
-0.00939636
0.00939636
0.0281891
0.0469818
0.0657746
0.0845673
0.10336
0.122153
0.140945
0.159738
0.178531
0.197324
0.216116
0.234909
0.253702
0.272495
0.291287
0.31008
0.328873
0.347665
0.366458
0.385251
0.404044
0.422836
0.441629
0.460422
-0.458041
-0.439345
-0.42065
-0.401954
-0.383259
-0.364563
-0.345868
-0.327172
-0.308477
-0.289781
-0.271085
-0.25239
-0.233694
-0.214999
-0.196303
-0.177608
-0.158912
-0.140217
-0.121521
-0.102826
-0.08413
-0.0654344
-0.0467389
-0.0280433
-0.00934777
0.00934777
0.0280433
0.0467389
0.0654344
0.08413
0.102826
0.121521
0.140217
0.158912
0.177608
0.196303
0.214999
0.233694
0.25239
0.271085
0.289781
0.308477
0.327172
0.345868
0.364563
0.383259
0.401954
0.42065
0.439345
0.458041
-0.455778
-0.437175
-0.418572
-0.399969
-0.381366
-0.362762
-0.344159
-0.325556
-0.306953
-0.28835
-0.269746
-0.251143
-0.23254
-0.213937
-0.195334
-0.17673
-0.158127
-0.139524
-0.120921
-0.102318
-0.0837144
-0.0651112
-0.046508
-0.0279048
-0.0093016
0.0093016
0.0279048
0.046508
0.0651112
0.0837144
0.102318
0.120921
0.139524
0.158127
0.17673
0.195334
0.213937
0.23254
0.251143
0.269746
0.28835
0.306953
0.325556
0.344159
0.362762
0.381366
0.399969
0.418572
0.437175
0.455778
-0.453644
-0.435128
-0.416612
-0.398096
-0.37958
-0.361064
-0.342548
-0.324032
-0.305516
-0.287
-0.268483
-0.249967
-0.231451
-0.212935
-0.194419
-0.175903
-0.157387
-0.138871
-0.120355
-0.101839
-0.0833224
-0.0648063
-0.0462902
-0.0277741
-0.00925805
0.00925805
0.0277741
0.0462902
0.0648063
0.0833224
0.101839
0.120355
0.138871
0.157387
0.175903
0.194419
0.212935
0.231451
0.249967
0.268483
0.287
0.305516
0.324032
0.342548
0.361064
0.37958
0.398096
0.416612
0.435128
0.453644
-0.451649
-0.433214
-0.414779
-0.396345
-0.37791
-0.359475
-0.341041
-0.322606
-0.304171
-0.285737
-0.267302
-0.248868
-0.230433
-0.211998
-0.193564
-0.175129
-0.156694
-0.13826
-0.119825
-0.10139
-0.0829558
-0.0645212
-0.0460866
-0.0276519
-0.00921732
0.00921732
0.0276519
0.0460866
0.0645212
0.0829558
0.10139
0.119825
0.13826
0.156694
0.175129
0.193564
0.211998
0.230433
0.248868
0.267302
0.285737
0.304171
0.322606
0.341041
0.359475
0.37791
0.396345
0.414779
0.433214
0.451649
-0.4498
-0.431441
-0.413082
-0.394722
-0.376363
-0.358004
-0.339645
-0.321286
-0.302926
-0.284567
-0.266208
-0.247849
-0.22949
-0.211131
-0.192771
-0.174412
-0.156053
-0.137694
-0.119335
-0.100975
-0.0826163
-0.0642571
-0.045898
-0.0275388
-0.00917959
0.00917959
0.0275388
0.045898
0.0642571
0.0826163
0.100975
0.119335
0.137694
0.156053
0.174412
0.192771
0.211131
0.22949
0.247849
0.266208
0.284567
0.302926
0.321286
0.339645
0.358004
0.376363
0.394722
0.413082
0.431441
0.4498
-0.448108
-0.429817
-0.411527
-0.393237
-0.374947
-0.356657
-0.338367
-0.320077
-0.301787
-0.283497
-0.265207
-0.246916
-0.228626
-0.210336
-0.192046
-0.173756
-0.155466
-0.137176
-0.118886
-0.100596
-0.0823055
-0.0640154
-0.0457253
-0.0274352
-0.00914505
0.00914505
0.0274352
0.0457253
0.0640154
0.0823055
0.100596
0.118886
0.137176
0.155466
0.173756
0.192046
0.210336
0.228626
0.246916
0.265207
0.283497
0.301787
0.320077
0.338367
0.356657
0.374947
0.393237
0.411527
0.429817
0.448108
-0.44658
-0.428352
-0.410124
-0.391897
-0.373669
-0.355441
-0.337213
-0.318986
-0.300758
-0.28253
-0.264302
-0.246075
-0.227847
-0.209619
-0.191391
-0.173164
-0.154936
-0.136708
-0.11848
-0.100253
-0.0820249
-0.0637971
-0.0455694
-0.0273416
-0.00911388
0.00911388
0.0273416
0.0455694
0.0637971
0.0820249
0.100253
0.11848
0.136708
0.154936
0.173164
0.191391
0.209619
0.227847
0.246075
0.264302
0.28253
0.300758
0.318986
0.337213
0.355441
0.373669
0.391897
0.410124
0.428352
0.44658
-0.445225
-0.427052
-0.40888
-0.390707
-0.372535
-0.354362
-0.33619
-0.318018
-0.299845
-0.281673
-0.2635
-0.245328
-0.227155
-0.208983
-0.190811
-0.172638
-0.154466
-0.136293
-0.118121
-0.0999484
-0.081776
-0.0636035
-0.0454311
-0.0272587
-0.00908622
0.00908622
0.0272587
0.0454311
0.0636035
0.081776
0.0999484
0.118121
0.136293
0.154466
0.172638
0.190811
0.208983
0.227155
0.245328
0.2635
0.281673
0.299845
0.318018
0.33619
0.354362
0.372535
0.390707
0.40888
0.427052
0.445225
-0.444049
-0.425924
-0.4078
-0.389676
-0.371551
-0.353427
-0.335302
-0.317178
-0.299053
-0.280929
-0.262804
-0.24468
-0.226556
-0.208431
-0.190307
-0.172182
-0.154058
-0.135933
-0.117809
-0.0996844
-0.08156
-0.0634356
-0.0453111
-0.0271867
-0.00906222
0.00906222
0.0271867
0.0453111
0.0634356
0.08156
0.0996844
0.117809
0.135933
0.154058
0.172182
0.190307
0.208431
0.226556
0.24468
0.262804
0.280929
0.299053
0.317178
0.335302
0.353427
0.371551
0.389676
0.4078
0.425924
0.444049
-0.443059
-0.424975
-0.406891
-0.388807
-0.370723
-0.352639
-0.334555
-0.316471
-0.298387
-0.280303
-0.262219
-0.244135
-0.22605
-0.207966
-0.189882
-0.171798
-0.153714
-0.13563
-0.117546
-0.0994622
-0.0813782
-0.0632941
-0.0452101
-0.0271261
-0.00904202
0.00904202
0.0271261
0.0452101
0.0632941
0.0813782
0.0994622
0.117546
0.13563
0.153714
0.171798
0.189882
0.207966
0.22605
0.244135
0.262219
0.280303
0.298387
0.316471
0.334555
0.352639
0.370723
0.388807
0.406891
0.424975
0.443059
-0.44226
-0.424209
-0.406157
-0.388106
-0.370054
-0.352003
-0.333952
-0.3159
-0.297849
-0.279797
-0.261746
-0.243694
-0.225643
-0.207592
-0.18954
-0.171489
-0.153437
-0.135386
-0.117334
-0.0992829
-0.0812315
-0.06318
-0.0451286
-0.0270772
-0.00902572
0.00902572
0.0270772
0.0451286
0.06318
0.0812315
0.0992829
0.117334
0.135386
0.153437
0.171489
0.18954
0.207592
0.225643
0.243694
0.261746
0.279797
0.297849
0.3159
0.333952
0.352003
0.370054
0.388106
0.406157
0.424209
0.44226
-0.441657
-0.42363
-0.405604
-0.387577
-0.36955
-0.351523
-0.333496
-0.315469
-0.297443
-0.279416
-0.261389
-0.243362
-0.225335
-0.207308
-0.189282
-0.171255
-0.153228
-0.135201
-0.117174
-0.0991475
-0.0811207
-0.0630939
-0.0450671
-0.0270402
-0.00901341
0.00901341
0.0270402
0.0450671
0.0630939
0.0811207
0.0991475
0.117174
0.135201
0.153228
0.171255
0.189282
0.207308
0.225335
0.243362
0.261389
0.279416
0.297443
0.315469
0.333496
0.351523
0.36955
0.387577
0.405604
0.42363
0.441657
-0.441253
-0.423243
-0.405233
-0.387222
-0.369212
-0.351202
-0.333191
-0.315181
-0.297171
-0.27916
-0.26115
-0.24314
-0.225129
-0.207119
-0.189109
-0.171098
-0.153088
-0.135078
-0.117067
-0.0990569
-0.0810465
-0.0630362
-0.0450258
-0.0270155
-0.00900517
0.00900517
0.0270155
0.0450258
0.0630362
0.0810465
0.0990569
0.117067
0.135078
0.153088
0.171098
0.189109
0.207119
0.225129
0.24314
0.26115
0.27916
0.297171
0.315181
0.333191
0.351202
0.369212
0.387222
0.405233
0.423243
0.441253
-0.441051
-0.423049
-0.405047
-0.387045
-0.369042
-0.35104
-0.333038
-0.315036
-0.297034
-0.279032
-0.26103
-0.243028
-0.225026
-0.207024
-0.189022
-0.17102
-0.153018
-0.135016
-0.117013
-0.0990114
-0.0810093
-0.0630072
-0.0450052
-0.0270031
-0.00900104
0.00900104
0.0270031
0.0450052
0.0630072
0.0810093
0.0990114
0.117013
0.135016
0.153018
0.17102
0.189022
0.207024
0.225026
0.243028
0.26103
0.279032
0.297034
0.315036
0.333038
0.35104
0.369042
0.387045
0.405047
0.423049
0.441051
-0.441051
-0.423049
-0.405047
-0.387045
-0.369042
-0.35104
-0.333038
-0.315036
-0.297034
-0.279032
-0.26103
-0.243028
-0.225026
-0.207024
-0.189022
-0.17102
-0.153018
-0.135016
-0.117013
-0.0990114
-0.0810093
-0.0630072
-0.0450052
-0.0270031
-0.00900104
0.00900104
0.0270031
0.0450052
0.0630072
0.0810093
0.0990114
0.117013
0.135016
0.153018
0.17102
0.189022
0.207024
0.225026
0.243028
0.26103
0.279032
0.297034
0.315036
0.333038
0.35104
0.369042
0.387045
0.405047
0.423049
0.441051
-0.441253
-0.423243
-0.405233
-0.387222
-0.369212
-0.351202
-0.333191
-0.315181
-0.297171
-0.27916
-0.26115
-0.24314
-0.225129
-0.207119
-0.189109
-0.171098
-0.153088
-0.135078
-0.117067
-0.0990569
-0.0810465
-0.0630362
-0.0450258
-0.0270155
-0.00900517
0.00900517
0.0270155
0.0450258
0.0630362
0.0810465
0.0990569
0.117067
0.135078
0.153088
0.171098
0.189109
0.207119
0.225129
0.24314
0.26115
0.27916
0.297171
0.315181
0.333191
0.351202
0.369212
0.387222
0.405233
0.423243
0.441253
-0.441657
-0.42363
-0.405604
-0.387577
-0.36955
-0.351523
-0.333496
-0.315469
-0.297443
-0.279416
-0.261389
-0.243362
-0.225335
-0.207308
-0.189282
-0.171255
-0.153228
-0.135201
-0.117174
-0.0991475
-0.0811207
-0.0630939
-0.0450671
-0.0270402
-0.00901341
0.00901341
0.0270402
0.0450671
0.0630939
0.0811207
0.0991475
0.117174
0.135201
0.153228
0.171255
0.189282
0.207308
0.225335
0.243362
0.261389
0.279416
0.297443
0.315469
0.333496
0.351523
0.36955
0.387577
0.405604
0.42363
0.441657
-0.44226
-0.424209
-0.406157
-0.388106
-0.370054
-0.352003
-0.333952
-0.3159
-0.297849
-0.279797
-0.261746
-0.243694
-0.225643
-0.207592
-0.18954
-0.171489
-0.153437
-0.135386
-0.117334
-0.0992829
-0.0812315
-0.06318
-0.0451286
-0.0270772
-0.00902572
0.00902572
0.0270772
0.0451286
0.06318
0.0812315
0.0992829
0.117334
0.135386
0.153437
0.171489
0.18954
0.207592
0.225643
0.243694
0.261746
0.279797
0.297849
0.3159
0.333952
0.352003
0.370054
0.388106
0.406157
0.424209
0.44226
-0.443059
-0.424975
-0.406891
-0.388807
-0.370723
-0.352639
-0.334555
-0.316471
-0.298387
-0.280303
-0.262219
-0.244135
-0.22605
-0.207966
-0.189882
-0.171798
-0.153714
-0.13563
-0.117546
-0.0994622
-0.0813782
-0.0632941
-0.0452101
-0.0271261
-0.00904202
0.00904202
0.0271261
0.0452101
0.0632941
0.0813782
0.0994622
0.117546
0.13563
0.153714
0.171798
0.189882
0.207966
0.22605
0.244135
0.262219
0.280303
0.298387
0.316471
0.334555
0.352639
0.370723
0.388807
0.406891
0.424975
0.443059
-0.444049
-0.425924
-0.4078
-0.389676
-0.371551
-0.353427
-0.335302
-0.317178
-0.299053
-0.280929
-0.262804
-0.24468
-0.226556
-0.208431
-0.190307
-0.172182
-0.154058
-0.135933
-0.117809
-0.0996844
-0.08156
-0.0634356
-0.0453111
-0.0271867
-0.00906222
0.00906222
0.0271867
0.0453111
0.0634356
0.08156
0.0996844
0.117809
0.135933
0.154058
0.172182
0.190307
0.208431
0.226556
0.24468
0.262804
0.280929
0.299053
0.317178
0.335302
0.353427
0.371551
0.389676
0.4078
0.425924
0.444049
-0.445225
-0.427052
-0.40888
-0.390707
-0.372535
-0.354362
-0.33619
-0.318018
-0.299845
-0.281673
-0.2635
-0.245328
-0.227155
-0.208983
-0.190811
-0.172638
-0.154466
-0.136293
-0.118121
-0.0999484
-0.081776
-0.0636035
-0.0454311
-0.0272587
-0.00908622
0.00908622
0.0272587
0.0454311
0.0636035
0.081776
0.0999484
0.118121
0.136293
0.154466
0.172638
0.190811
0.208983
0.227155
0.245328
0.2635
0.281673
0.299845
0.318018
0.33619
0.354362
0.372535
0.390707
0.40888
0.427052
0.445225
-0.44658
-0.428352
-0.410124
-0.391897
-0.373669
-0.355441
-0.337213
-0.318986
-0.300758
-0.28253
-0.264302
-0.246075
-0.227847
-0.209619
-0.191391
-0.173164
-0.154936
-0.136708
-0.11848
-0.100253
-0.0820249
-0.0637971
-0.0455694
-0.0273416
-0.00911388
0.00911388
0.0273416
0.0455694
0.0637971
0.0820249
0.100253
0.11848
0.136708
0.154936
0.173164
0.191391
0.209619
0.227847
0.246075
0.264302
0.28253
0.300758
0.318986
0.337213
0.355441
0.373669
0.391897
0.410124
0.428352
0.44658
-0.448108
-0.429817
-0.411527
-0.393237
-0.374947
-0.356657
-0.338367
-0.320077
-0.301787
-0.283497
-0.265207
-0.246916
-0.228626
-0.210336
-0.192046
-0.173756
-0.155466
-0.137176
-0.118886
-0.100596
-0.0823055
-0.0640154
-0.0457253
-0.0274352
-0.00914505
0.00914505
0.0274352
0.0457253
0.0640154
0.0823055
0.100596
0.118886
0.137176
0.155466
0.173756
0.192046
0.210336
0.228626
0.246916
0.265207
0.283497
0.301787
0.320077
0.338367
0.356657
0.374947
0.393237
0.411527
0.429817
0.448108
-0.4498
-0.431441
-0.413082
-0.394722
-0.376363
-0.358004
-0.339645
-0.321286
-0.302926
-0.284567
-0.266208
-0.247849
-0.22949
-0.211131
-0.192771
-0.174412
-0.156053
-0.137694
-0.119335
-0.100975
-0.0826163
-0.0642571
-0.045898
-0.0275388
-0.00917959
0.00917959
0.0275388
0.045898
0.0642571
0.0826163
0.100975
0.119335
0.137694
0.156053
0.174412
0.192771
0.211131
0.22949
0.247849
0.266208
0.284567
0.302926
0.321286
0.339645
0.358004
0.376363
0.394722
0.413082
0.431441
0.4498
-0.451649
-0.433214
-0.414779
-0.396345
-0.37791
-0.359475
-0.341041
-0.322606
-0.304171
-0.285737
-0.267302
-0.248868
-0.230433
-0.211998
-0.193564
-0.175129
-0.156694
-0.13826
-0.119825
-0.10139
-0.0829558
-0.0645212
-0.0460866
-0.0276519
-0.00921732
0.00921732
0.0276519
0.0460866
0.0645212
0.0829558
0.10139
0.119825
0.13826
0.156694
0.175129
0.193564
0.211998
0.230433
0.248868
0.267302
0.285737
0.304171
0.322606
0.341041
0.359475
0.37791
0.396345
0.414779
0.433214
0.451649
-0.453644
-0.435128
-0.416612
-0.398096
-0.37958
-0.361064
-0.342548
-0.324032
-0.305516
-0.287
-0.268483
-0.249967
-0.231451
-0.212935
-0.194419
-0.175903
-0.157387
-0.138871
-0.120355
-0.101839
-0.0833224
-0.0648063
-0.0462902
-0.0277741
-0.00925805
0.00925805
0.0277741
0.0462902
0.0648063
0.0833224
0.101839
0.120355
0.138871
0.157387
0.175903
0.194419
0.212935
0.231451
0.249967
0.268483
0.287
0.305516
0.324032
0.342548
0.361064
0.37958
0.398096
0.416612
0.435128
0.453644
-0.455778
-0.437175
-0.418572
-0.399969
-0.381366
-0.362762
-0.344159
-0.325556
-0.306953
-0.28835
-0.269746
-0.251143
-0.23254
-0.213937
-0.195334
-0.17673
-0.158127
-0.139524
-0.120921
-0.102318
-0.0837144
-0.0651112
-0.046508
-0.0279048
-0.0093016
0.0093016
0.0279048
0.046508
0.0651112
0.0837144
0.102318
0.120921
0.139524
0.158127
0.17673
0.195334
0.213937
0.23254
0.251143
0.269746
0.28835
0.306953
0.325556
0.344159
0.362762
0.381366
0.399969
0.418572
0.437175
0.455778
-0.458041
-0.439345
-0.42065
-0.401954
-0.383259
-0.364563
-0.345868
-0.327172
-0.308477
-0.289781
-0.271085
-0.25239
-0.233694
-0.214999
-0.196303
-0.177608
-0.158912
-0.140217
-0.121521
-0.102826
-0.08413
-0.0654344
-0.0467389
-0.0280433
-0.00934777
0.00934777
0.0280433
0.0467389
0.0654344
0.08413
0.102826
0.121521
0.140217
0.158912
0.177608
0.196303
0.214999
0.233694
0.25239
0.271085
0.289781
0.308477
0.327172
0.345868
0.364563
0.383259
0.401954
0.42065
0.439345
0.458041
-0.460422
-0.441629
-0.422836
-0.404044
-0.385251
-0.366458
-0.347665
-0.328873
-0.31008
-0.291287
-0.272495
-0.253702
-0.234909
-0.216116
-0.197324
-0.178531
-0.159738
-0.140945
-0.122153
-0.10336
-0.0845673
-0.0657746
-0.0469818
-0.0281891
-0.00939636
0.00939636
0.0281891
0.0469818
0.0657746
0.0845673
0.10336
0.122153
0.140945
0.159738
0.178531
0.197324
0.216116
0.234909
0.253702
0.272495
0.291287
0.31008
0.328873
0.347665
0.366458
0.385251
0.404044
0.422836
0.441629
0.460422
-0.462911
-0.444017
-0.425123
-0.406228
-0.387334
-0.36844
-0.349545
-0.330651
-0.311757
-0.292862
-0.273968
-0.255074
-0.236179
-0.217285
-0.198391
-0.179496
-0.160602
-0.141708
-0.122813
-0.103919
-0.0850245
-0.0661302
-0.0472359
-0.0283415
-0.00944717
0.00944717
0.0283415
0.0472359
0.0661302
0.0850245
0.103919
0.122813
0.141708
0.160602
0.179496
0.198391
0.217285
0.236179
0.255074
0.273968
0.292862
0.311757
0.330651
0.349545
0.36844
0.387334
0.406228
0.425123
0.444017
0.462911
-0.465499
-0.446499
-0.427499
-0.408499
-0.389499
-0.370499
-0.351499
-0.332499
-0.313499
-0.294499
-0.275499
-0.2565
-0.2375
-0.2185
-0.1995
-0.1805
-0.1615
-0.1425
-0.1235
-0.1045
-0.0854998
-0.0664999
-0.0474999
-0.0284999
-0.00949998
0.00949998
0.0284999
0.0474999
0.0664999
0.0854998
0.1045
0.1235
0.1425
0.1615
0.1805
0.1995
0.2185
0.2375
0.2565
0.275499
0.294499
0.313499
0.332499
0.351499
0.370499
0.389499
0.408499
0.427499
0.446499
0.465499
-0.468175
-0.449066
-0.429956
-0.410847
-0.391738
-0.372629
-0.35352
-0.334411
-0.315301
-0.296192
-0.277083
-0.257974
-0.238865
-0.219756
-0.200646
-0.181537
-0.162428
-0.143319
-0.12421
-0.1051
-0.0859913
-0.0668821
-0.0477729
-0.0286638
-0.00955459
0.00955459
0.0286638
0.0477729
0.0668821
0.0859913
0.1051
0.12421
0.143319
0.162428
0.181537
0.200646
0.219756
0.238865
0.257974
0.277083
0.296192
0.315301
0.334411
0.35352
0.372629
0.391738
0.410847
0.429956
0.449066
0.468175
-0.470928
-0.451707
-0.432485
-0.413264
-0.394042
-0.37482
-0.355599
-0.336377
-0.317156
-0.297934
-0.278713
-0.259491
-0.240269
-0.221048
-0.201826
-0.182605
-0.163383
-0.144162
-0.12494
-0.105719
-0.086497
-0.0672755
-0.0480539
-0.0288323
-0.00961078
0.00961078
0.0288323
0.0480539
0.0672755
0.086497
0.105719
0.12494
0.144162
0.163383
0.182605
0.201826
0.221048
0.240269
0.259491
0.278713
0.297934
0.317156
0.336377
0.355599
0.37482
0.394042
0.413264
0.432485
0.451707
0.470928
-0.473749
-0.454412
-0.435075
-0.415739
-0.396402
-0.377065
-0.357729
-0.338392
-0.319055
-0.299719
-0.280382
-0.261045
-0.241709
-0.222372
-0.203035
-0.183699
-0.164362
-0.145025
-0.125688
-0.106352
-0.0870151
-0.0676784
-0.0483417
-0.029005
-0.00966834
0.00966834
0.029005
0.0483417
0.0676784
0.0870151
0.106352
0.125688
0.145025
0.164362
0.183699
0.203035
0.222372
0.241709
0.261045
0.280382
0.299719
0.319055
0.338392
0.357729
0.377065
0.396402
0.415739
0.435075
0.454412
0.473749
-0.476626
-0.457172
-0.437718
-0.418264
-0.39881
-0.379356
-0.359902
-0.340447
-0.320993
-0.301539
-0.282085
-0.262631
-0.243177
-0.223723
-0.204268
-0.184814
-0.16536
-0.145906
-0.126452
-0.106998
-0.0875436
-0.0680895
-0.0486353
-0.0291812
-0.00972707
0.00972707
0.0291812
0.0486353
0.0680895
0.0875436
0.106998
0.126452
0.145906
0.16536
0.184814
0.204268
0.223723
0.243177
0.262631
0.282085
0.301539
0.320993
0.340447
0.359902
0.379356
0.39881
0.418264
0.437718
0.457172
0.476626
-0.47955
-0.459977
-0.440403
-0.42083
-0.401256
-0.381683
-0.36211
-0.342536
-0.322963
-0.303389
-0.283816
-0.264242
-0.244669
-0.225095
-0.205522
-0.185948
-0.166375
-0.146801
-0.127228
-0.107654
-0.0880807
-0.0685072
-0.0489337
-0.0293602
-0.00978674
0.00978674
0.0293602
0.0489337
0.0685072
0.0880807
0.107654
0.127228
0.146801
0.166375
0.185948
0.205522
0.225095
0.244669
0.264242
0.283816
0.303389
0.322963
0.342536
0.36211
0.381683
0.401256
0.42083
0.440403
0.459977
0.47955
-0.482511
-0.462816
-0.443122
-0.423428
-0.403733
-0.384039
-0.364345
-0.34465
-0.324956
-0.305262
-0.285568
-0.265873
-0.246179
-0.226485
-0.20679
-0.187096
-0.167402
-0.147707
-0.128013
-0.108319
-0.0886244
-0.0689301
-0.0492358
-0.0295415
-0.00984716
0.00984716
0.0295415
0.0492358
0.0689301
0.0886244
0.108319
0.128013
0.147707
0.167402
0.187096
0.20679
0.226485
0.246179
0.265873
0.285568
0.305262
0.324956
0.34465
0.364345
0.384039
0.403733
0.423428
0.443122
0.462816
0.482511
-0.485497
-0.46568
-0.445864
-0.426048
-0.406232
-0.386416
-0.3666
-0.346783
-0.326967
-0.307151
-0.287335
-0.267519
-0.247702
-0.227886
-0.20807
-0.188254
-0.168438
-0.148621
-0.128805
-0.108989
-0.0891729
-0.0693567
-0.0495405
-0.0297243
-0.0099081
0.0099081
0.0297243
0.0495405
0.0693567
0.0891729
0.108989
0.128805
0.148621
0.168438
0.188254
0.20807
0.227886
0.247702
0.267519
0.287335
0.307151
0.326967
0.346783
0.3666
0.386416
0.406232
0.426048
0.445864
0.46568
0.485497
-0.488498
-0.46856
-0.448621
-0.428682
-0.408743
-0.388805
-0.368866
-0.348927
-0.328989
-0.30905
-0.289111
-0.269172
-0.249234
-0.229295
-0.209356
-0.189418
-0.169479
-0.14954
-0.129602
-0.109663
-0.0897242
-0.0697855
-0.0498468
-0.0299081
-0.00996935
0.00996935
0.0299081
0.0498468
0.0697855
0.0897242
0.109663
0.129602
0.14954
0.169479
0.189418
0.209356
0.229295
0.249234
0.269172
0.289111
0.30905
0.328989
0.348927
0.368866
0.388805
0.408743
0.428682
0.448621
0.46856
0.488498
)
;

boundaryField
{
    left
    {
        type            calculated;
        value           nonuniform List<scalar> 
50
(
-0.498466
-0.495403
-0.492356
-0.489336
-0.486352
-0.483416
-0.480538
-0.477728
-0.474998
-0.472357
-0.469817
-0.467388
-0.465079
-0.462902
-0.460865
-0.458979
-0.457252
-0.455693
-0.454311
-0.453111
-0.452101
-0.451286
-0.450671
-0.450258
-0.450052
-0.450052
-0.450258
-0.450671
-0.451286
-0.452101
-0.453111
-0.454311
-0.455693
-0.457252
-0.458979
-0.460865
-0.462902
-0.465079
-0.467388
-0.469817
-0.472357
-0.474998
-0.477728
-0.480538
-0.483416
-0.486352
-0.489336
-0.492356
-0.495403
-0.498466
)
;
    }
    right
    {
        type            calculated;
        value           nonuniform List<scalar> 
50
(
0.498466
0.495403
0.492356
0.489336
0.486352
0.483416
0.480538
0.477728
0.474998
0.472357
0.469817
0.467388
0.465079
0.462902
0.460865
0.458979
0.457252
0.455693
0.454311
0.453111
0.452101
0.451286
0.450671
0.450258
0.450052
0.450052
0.450258
0.450671
0.451286
0.452101
0.453111
0.454311
0.455693
0.457252
0.458979
0.460865
0.462902
0.465079
0.467388
0.469817
0.472357
0.474998
0.477728
0.480538
0.483416
0.486352
0.489336
0.492356
0.495403
0.498466
)
;
    }
    up
    {
        type            calculated;
        value           nonuniform List<scalar> 
50
(
-0.49
-0.47
-0.45
-0.43
-0.41
-0.39
-0.37
-0.35
-0.33
-0.31
-0.29
-0.27
-0.25
-0.23
-0.21
-0.19
-0.17
-0.15
-0.13
-0.11
-0.09
-0.07
-0.05
-0.03
-0.01
0.01
0.03
0.05
0.07
0.09
0.11
0.13
0.15
0.17
0.19
0.21
0.23
0.25
0.27
0.29
0.31
0.33
0.35
0.37
0.39
0.41
0.43
0.45
0.47
0.49
)
;
    }
    down
    {
        type            calculated;
        value           nonuniform List<scalar> 
50
(
-0.49
-0.47
-0.45
-0.43
-0.41
-0.39
-0.37
-0.35
-0.33
-0.31
-0.29
-0.27
-0.25
-0.23
-0.21
-0.19
-0.17
-0.15
-0.13
-0.11
-0.09
-0.07
-0.05
-0.03
-0.01
0.01
0.03
0.05
0.07
0.09
0.11
0.13
0.15
0.17
0.19
0.21
0.23
0.25
0.27
0.29
0.31
0.33
0.35
0.37
0.39
0.41
0.43
0.45
0.47
0.49
)
;
    }
    frontAndBack
    {
        type            empty;
    }
}


// ************************************************************************* //
