/*--------------------------------*- C++ -*----------------------------------*\
  =========                 |
  \\      /  F ield         | OpenFOAM: The Open Source CFD Toolbox
   \\    /   O peration     | Website:  https://openfoam.org
    \\  /    A nd           | Version:  6
     \\/     M anipulation  |
\*---------------------------------------------------------------------------*/
FoamFile
{
    version     2.0;
    format      ascii;
    class       volScalarField;
    location    "3200";
    object      p;
}
// * * * * * * * * * * * * * * * * * * * * * * * * * * * * * * * * * * * * * //

dimensions      [0 2 -2 0 0 0 0];

internalField   nonuniform List<scalar> 
2500
(
0.386011
0.168524
0.113827
0.0905048
0.0761148
0.0670012
0.0605423
0.0556082
0.051655
0.0483807
0.0456072
0.0432221
0.0411514
0.0393439
0.037763
0.0363816
0.0351795
0.034141
0.0332538
0.0325085
0.0318976
0.0314153
0.0310572
0.0308201
0.0307021
0.0307021
0.0308201
0.0310572
0.0314153
0.0318976
0.0325085
0.0332538
0.034141
0.0351795
0.0363816
0.037763
0.0393439
0.0411514
0.0432221
0.0456072
0.0483807
0.051655
0.0556082
0.0605423
0.0670012
0.0761148
0.0905048
0.113827
0.168524
0.386011
0.283316
0.165454
0.119191
0.0943397
0.0788145
0.0688408
0.0618265
0.056538
0.0523511
0.0489167
0.0460292
0.0435601
0.0414256
0.0395685
0.0379481
0.0365349
0.0353069
0.0342472
0.0333428
0.0325836
0.0319615
0.0314706
0.0311062
0.030865
0.030745
0.030745
0.030865
0.0311062
0.0314706
0.0319615
0.0325836
0.0333428
0.0342472
0.0353069
0.0365349
0.0379481
0.0395685
0.0414256
0.0435601
0.0460292
0.0489167
0.0523511
0.056538
0.0618265
0.0688408
0.0788145
0.0943397
0.119191
0.165454
0.283316
0.188386
0.14689
0.117642
0.0954134
0.0803366
0.0701351
0.0628206
0.0572934
0.0529308
0.0493685
0.0463862
0.0438456
0.0416558
0.0397551
0.0380997
0.0366582
0.035407
0.0343283
0.0334083
0.0326364
0.0320042
0.0315055
0.0311354
0.0308905
0.0307686
0.0307686
0.0308905
0.0311354
0.0315055
0.0320042
0.0326364
0.0334083
0.0343283
0.035407
0.0366582
0.0380997
0.0397551
0.0416558
0.0438456
0.0463862
0.0493685
0.0529308
0.0572934
0.0628206
0.0701351
0.0803366
0.0954134
0.117642
0.14689
0.188386
0.129412
0.124407
0.109862
0.0929823
0.0799753
0.0703953
0.0632107
0.0576673
0.0532512
0.0496322
0.0465999
0.0440171
0.0417925
0.0398628
0.0381835
0.0367219
0.035454
0.0343614
0.0334298
0.0326484
0.0320087
0.0315041
0.0311296
0.0308819
0.0307586
0.0307586
0.0308819
0.0311296
0.0315041
0.0320087
0.0326484
0.0334298
0.0343614
0.035454
0.0367219
0.0381835
0.0398628
0.0417925
0.0440171
0.0465999
0.0496322
0.0532512
0.0576673
0.0632107
0.0703953
0.0799753
0.0929823
0.109862
0.124407
0.129412
0.0934885
0.10453
0.0999697
0.0885812
0.0782423
0.0698002
0.0630751
0.0577058
0.0533457
0.0497352
0.0466929
0.044094
0.0418519
0.0399056
0.038211
0.0367361
0.0354564
0.0343537
0.0334136
0.0326251
0.0319795
0.0314704
0.0310926
0.0308426
0.0307182
0.0307182
0.0308426
0.0310926
0.0314704
0.0319795
0.0326251
0.0334136
0.0343537
0.0354564
0.0367361
0.038211
0.0399056
0.0418519
0.044094
0.0466929
0.0497352
0.0533457
0.0577058
0.0630751
0.0698002
0.0782423
0.0885812
0.0999697
0.10453
0.0934885
0.0704808
0.0882439
0.0900853
0.0833515
0.0756492
0.0685573
0.0624967
0.0574449
0.0532328
0.0496887
0.0466736
0.0440828
0.0418397
0.0398882
0.0381867
0.0367044
0.0354176
0.0343083
0.0333624
0.0325688
0.0319191
0.0314066
0.0310263
0.0307747
0.0306495
0.0306495
0.0307747
0.0310263
0.0314066
0.0319191
0.0325688
0.0333624
0.0343083
0.0354176
0.0367044
0.0381867
0.0398882
0.0418397
0.0440828
0.0466736
0.0496887
0.0532328
0.0574449
0.0624967
0.0685573
0.0756492
0.0833515
0.0900853
0.0882439
0.0704808
0.0557834
0.0753287
0.0809849
0.0778893
0.0725456
0.0668341
0.0615442
0.0569094
0.0529195
0.0494932
0.0465401
0.0439812
0.0417537
0.0398087
0.0381089
0.0366256
0.0353366
0.0342244
0.0332755
0.0324792
0.031827
0.0313124
0.0309306
0.0306779
0.0305521
0.0305521
0.0306779
0.0309306
0.0313124
0.031827
0.0324792
0.0332755
0.0342244
0.0353366
0.0366256
0.0381089
0.0398087
0.0417537
0.0439812
0.0465401
0.0494932
0.0529195
0.0569094
0.0615442
0.0668341
0.0725456
0.0778893
0.0809849
0.0753287
0.0557834
0.0466653
0.0654112
0.0730168
0.07257
0.0692025
0.0647874
0.0602968
0.0561354
0.052421
0.0491543
0.0462938
0.0437889
0.0415927
0.0396659
0.0379764
0.0364986
0.0352122
0.0341011
0.0331522
0.0323555
0.0317026
0.0311874
0.0308049
0.0305518
0.0304258
0.0304258
0.0305518
0.0308049
0.0311874
0.0317026
0.0323555
0.0331522
0.0341011
0.0352122
0.0364986
0.0379764
0.0396659
0.0415927
0.0437889
0.0462938
0.0491543
0.052421
0.0561354
0.0602968
0.0647874
0.0692025
0.07257
0.0730168
0.0654112
0.0466653
0.0411714
0.057992
0.0663021
0.0676419
0.0658342
0.0625609
0.0588385
0.0551687
0.051761
0.0486838
0.0459404
0.0435084
0.041358
0.0394602
0.0377891
0.0363232
0.0350444
0.0339381
0.0329923
0.0321975
0.0315458
0.0310313
0.0306493
0.0303964
0.0302705
0.0302705
0.0303964
0.0306493
0.0310313
0.0315458
0.0321975
0.0329923
0.0339381
0.0350444
0.0363232
0.0377891
0.0394602
0.041358
0.0435084
0.0459404
0.0486838
0.051761
0.0551687
0.0588385
0.0625609
0.0658342
0.0676419
0.0663021
0.057992
0.0411714
0.0379652
0.0525382
0.0607933
0.0632367
0.0625925
0.0602728
0.0572477
0.0540566
0.0509666
0.0480968
0.0454882
0.0431442
0.0410518
0.0391926
0.0375476
0.0360995
0.0348331
0.0337354
0.0327957
0.0320051
0.0313565
0.0308441
0.0304634
0.0302114
0.0300859
0.0300859
0.0302114
0.0304634
0.0308441
0.0313565
0.0320051
0.0327957
0.0337354
0.0348331
0.0360995
0.0375476
0.0391926
0.0410518
0.0431442
0.0454882
0.0480968
0.0509666
0.0540566
0.0572477
0.0602728
0.0625925
0.0632367
0.0607933
0.0525382
0.0379652
0.0361839
0.0485764
0.0563532
0.0593955
0.0595713
0.0580119
0.055591
0.0528434
0.0500653
0.0474097
0.0449468
0.0427018
0.0406772
0.038865
0.0372529
0.0358281
0.0345785
0.033493
0.0325623
0.0317783
0.0311346
0.0306256
0.0302474
0.0299969
0.0298722
0.0298722
0.0299969
0.0302474
0.0306256
0.0311346
0.0317783
0.0325623
0.033493
0.0345785
0.0358281
0.0372529
0.038865
0.0406772
0.0427018
0.0449468
0.0474097
0.0500653
0.0528434
0.055591
0.0580119
0.0595713
0.0593955
0.0563532
0.0485764
0.0361839
0.0352813
0.0457239
0.0528159
0.0561033
0.0568192
0.0558396
0.0539215
0.0515683
0.0490835
0.0466393
0.0443265
0.0421876
0.0402381
0.0384795
0.0369062
0.0355097
0.034281
0.0332112
0.0322922
0.0315172
0.03088
0.0303759
0.0300012
0.0297528
0.0296291
0.0296291
0.0297528
0.0300012
0.0303759
0.03088
0.0315172
0.0322922
0.0332112
0.034281
0.0355097
0.0369062
0.0384795
0.0402381
0.0421876
0.0443265
0.0466393
0.0490835
0.0515683
0.0539215
0.0558396
0.0568192
0.0561033
0.0528159
0.0457239
0.0352813
0.0349129
0.0436837
0.0500175
0.0533135
0.054352
0.0537939
0.0522784
0.0502637
0.0480449
0.0458019
0.0436381
0.0416083
0.0397387
0.0380388
0.0365091
0.0351453
0.0339413
0.0328903
0.0319857
0.0312217
0.0305929
0.030095
0.0297246
0.0294791
0.0293568
0.0293568
0.0294791
0.0297246
0.030095
0.0305929
0.0312217
0.0319857
0.0328903
0.0339413
0.0351453
0.0365091
0.0380388
0.0397387
0.0416083
0.0436381
0.0458019
0.0480449
0.0502637
0.0522784
0.0537939
0.054352
0.0533135
0.0500175
0.0436837
0.0349129
0.0348623
0.0422314
0.0478104
0.0509654
0.0521637
0.0518944
0.0506891
0.0489548
0.0469697
0.0449123
0.0428916
0.0409707
0.0391835
0.0375459
0.0360636
0.034736
0.03356
0.0325307
0.031643
0.0308921
0.0302733
0.029783
0.0294179
0.0291759
0.0290552
0.0290552
0.0291759
0.0294179
0.029783
0.0302733
0.0308921
0.031643
0.0325307
0.03356
0.034736
0.0360636
0.0375459
0.0391835
0.0409707
0.0428916
0.0449123
0.0469697
0.0489548
0.0506891
0.0518944
0.0521637
0.0509654
0.0478104
0.0422314
0.0348623
0.0349946
0.0411998
0.046068
0.0489937
0.0502341
0.0501467
0.0491698
0.0476604
0.0458745
0.0439834
0.0420967
0.0402816
0.038577
0.0370038
0.0355716
0.0342833
0.0331381
0.0321331
0.0312645
0.0305286
0.0299214
0.0294398
0.0290811
0.0288431
0.0287244
0.0287244
0.0288431
0.0290811
0.0294398
0.0299214
0.0305286
0.0312645
0.0321331
0.0331381
0.0342833
0.0355716
0.0370038
0.038577
0.0402816
0.0420967
0.0439834
0.0458745
0.0476604
0.0491698
0.0501467
0.0502341
0.0489937
0.046068
0.0411998
0.0349946
0.0352254
0.0404662
0.0446853
0.047335
0.0485356
0.0485464
0.0477283
0.0463927
0.0447716
0.0430259
0.0412617
0.0395472
0.0379237
0.0364156
0.0350353
0.0337885
0.0326765
0.0316981
0.0308508
0.0301316
0.0295375
0.0290659
0.0287143
0.0284809
0.0283645
0.0283645
0.0284809
0.0287143
0.0290659
0.0295375
0.0301316
0.0308508
0.0316981
0.0326765
0.0337885
0.0350353
0.0364156
0.0379237
0.0395472
0.0412617
0.0430259
0.0447716
0.0463927
0.0477283
0.0485464
0.0485356
0.047335
0.0446853
0.0404662
0.0352254
0.0355022
0.0399406
0.0435773
0.0459314
0.0470371
0.0470824
0.0463659
0.0451587
0.0436701
0.0420482
0.0403937
0.0387728
0.0372278
0.0357842
0.0344569
0.0332533
0.0321765
0.0312266
0.0304023
0.0297015
0.0291219
0.0286613
0.0283177
0.0280895
0.0279757
0.0279757
0.0280895
0.0283177
0.0286613
0.0291219
0.0297015
0.0304023
0.0312266
0.0321765
0.0332533
0.0344569
0.0357842
0.0372278
0.0387728
0.0403937
0.0420482
0.0436701
0.0451587
0.0463659
0.0470824
0.0470371
0.0459314
0.0435773
0.0399406
0.0355022
0.0357919
0.0395573
0.0426754
0.0447315
0.0457069
0.0457394
0.0450784
0.043961
0.0425752
0.0410565
0.0394984
0.0379635
0.0364929
0.0351127
0.0338385
0.0326793
0.0316391
0.0307194
0.0299197
0.0292389
0.028675
0.0282265
0.0278917
0.0276692
0.0275582
0.0275582
0.0276692
0.0278917
0.0282265
0.028675
0.0292389
0.0299197
0.0307194
0.0316391
0.0326793
0.0338385
0.0351127
0.0364929
0.0379635
0.0394984
0.0410565
0.0425752
0.043961
0.0450784
0.0457394
0.0457069
0.0447315
0.0426754
0.0395573
0.0357919
0.036073
0.0392678
0.0419253
0.0436906
0.0445146
0.0445003
0.0438586
0.0427988
0.0414898
0.0400551
0.0385802
0.0371231
0.0357225
0.0344036
0.0331823
0.032068
0.0310656
0.0301775
0.0294039
0.0287442
0.0281973
0.0277618
0.0274365
0.0272202
0.0271123
0.0271123
0.0272202
0.0274365
0.0277618
0.0281973
0.0287442
0.0294039
0.0301775
0.0310656
0.032068
0.0331823
0.0344036
0.0357225
0.0371231
0.0385802
0.0400551
0.0414898
0.0427988
0.0438586
0.0445003
0.0445146
0.0436906
0.0419253
0.0392678
0.036073
0.0363318
0.0390362
0.0412837
0.0427707
0.0434319
0.0433468
0.0426969
0.0416684
0.0404141
0.0390462
0.0376422
0.0362547
0.0349193
0.0336594
0.0324902
0.031421
0.0304573
0.0296019
0.0288555
0.0282183
0.0276893
0.0272678
0.0269526
0.026743
0.0266384
0.0266384
0.026743
0.0269526
0.0272678
0.0276893
0.0282183
0.0288555
0.0296019
0.0304573
0.031421
0.0324902
0.0336594
0.0349193
0.0362547
0.0376422
0.0390462
0.0404141
0.0416684
0.0426969
0.0433468
0.0434319
0.0427707
0.0412837
0.0390362
0.0363318
0.0365584
0.0388355
0.040716
0.0419394
0.0424331
0.0422611
0.0415823
0.0405645
0.0393466
0.0380305
0.0366863
0.0353609
0.0340858
0.0328822
0.031764
0.0307399
0.0298155
0.0289936
0.0282756
0.0276617
0.0271517
0.0267448
0.0264405
0.026238
0.0261368
0.0261368
0.026238
0.0264405
0.0267448
0.0271517
0.0276617
0.0282756
0.0289936
0.0298155
0.0307399
0.031764
0.0328822
0.0340858
0.0353609
0.0366863
0.0380305
0.0393466
0.0405645
0.0415823
0.0422611
0.0424331
0.0419394
0.040716
0.0388355
0.0365584
0.036746
0.0386447
0.0401944
0.0411694
0.0414951
0.0412259
0.0405035
0.0394804
0.0382842
0.0370076
0.0357134
0.0344431
0.0332239
0.032074
0.0310055
0.0300263
0.0291415
0.0283539
0.027665
0.0270755
0.0265851
0.0261937
0.0259007
0.0257057
0.0256082
0.0256082
0.0257057
0.0259007
0.0261937
0.0265851
0.0270755
0.027665
0.0283539
0.0291415
0.0300263
0.0310055
0.032074
0.0332239
0.0344431
0.0357134
0.0370076
0.0382842
0.0394804
0.0405035
0.0412259
0.0414951
0.0411694
0.0401944
0.0386447
0.036746
0.036889
0.0384477
0.0396964
0.0404375
0.0405974
0.040225
0.0394488
0.0384089
0.037223
0.0359759
0.0347237
0.0335025
0.032335
0.0312363
0.0302163
0.0292816
0.0284366
0.0276838
0.0270248
0.0264603
0.0259904
0.0256151
0.0253339
0.0251467
0.0250531
0.0250531
0.0251467
0.0253339
0.0256151
0.0259904
0.0264603
0.0270248
0.0276838
0.0284366
0.0292816
0.0302163
0.0312363
0.032335
0.0335025
0.0347237
0.0359759
0.037223
0.0384089
0.0394488
0.040225
0.0405974
0.0404375
0.0396964
0.0384477
0.036889
0.0369828
0.0382313
0.0392036
0.039724
0.039722
0.0392436
0.038407
0.0373423
0.0361584
0.0349331
0.0337166
0.0325395
0.0314203
0.0303705
0.0293978
0.0285072
0.027702
0.0269845
0.026356
0.0258172
0.0253684
0.0250097
0.0247408
0.0245617
0.0244721
0.0244721
0.0245617
0.0247408
0.0250097
0.0253684
0.0258172
0.026356
0.0269845
0.027702
0.0285072
0.0293978
0.0303705
0.0314203
0.0325395
0.0337166
0.0349331
0.0361584
0.0373423
0.038407
0.0392436
0.039722
0.039724
0.0392036
0.0382313
0.0369828
0.0370234
0.0379846
0.0387004
0.039012
0.0388528
0.0382679
0.0373674
0.0362728
0.0350854
0.0338767
0.0326911
0.0315543
0.0304805
0.0294779
0.0285515
0.0277045
0.0269393
0.0262574
0.0256598
0.0251473
0.0247201
0.0243784
0.0241222
0.0239514
0.023866
0.023866
0.0239514
0.0241222
0.0243784
0.0247201
0.0251473
0.0256598
0.0262574
0.0269393
0.0277045
0.0285515
0.0294779
0.0304805
0.0315543
0.0326911
0.0338767
0.0350854
0.0362728
0.0373674
0.0382679
0.0388528
0.039012
0.0387004
0.0379846
0.0370234
0.0370067
0.0376982
0.0381738
0.0382869
0.0379757
0.0372854
0.0363199
0.035193
0.0339991
0.0328036
0.0316459
0.0305467
0.0295163
0.0285595
0.0276785
0.0268749
0.0261496
0.0255035
0.0249373
0.0244514
0.0240463
0.0237221
0.0234788
0.0233167
0.0232356
0.0232356
0.0233167
0.0234788
0.0237221
0.0240463
0.0244514
0.0249373
0.0255035
0.0261496
0.0268749
0.0276785
0.0285595
0.0295163
0.0305467
0.0316459
0.0328036
0.0339991
0.035193
0.0363199
0.0372854
0.0379757
0.0382869
0.0381738
0.0376982
0.0370067
0.0369289
0.037364
0.0376124
0.0375359
0.0370781
0.0362851
0.0352554
0.0340958
0.0328944
0.0317109
0.0305794
0.0295165
0.0285282
0.0276162
0.0267801
0.0260195
0.0253342
0.0247242
0.0241897
0.0237309
0.0233482
0.0230417
0.0228117
0.0226583
0.0225816
0.0225816
0.0226583
0.0228117
0.0230417
0.0233482
0.0237309
0.0241897
0.0247242
0.0253342
0.0260195
0.0267801
0.0276162
0.0285282
0.0295165
0.0305794
0.0317109
0.0328944
0.0340958
0.0352554
0.0362851
0.0370781
0.0375359
0.0376124
0.037364
0.0369289
0.0367861
0.0369746
0.037006
0.0367478
0.0361488
0.0352567
0.0341653
0.0329748
0.0317669
0.0305956
0.0294903
0.0284631
0.0275166
0.0266489
0.0258575
0.0251399
0.0244946
0.0239208
0.0234182
0.0229867
0.0226267
0.0223383
0.0221218
0.0219773
0.0219051
0.0219051
0.0219773
0.0221218
0.0223383
0.0226267
0.0229867
0.0234182
0.0239208
0.0244946
0.0251399
0.0258575
0.0266489
0.0275166
0.0284631
0.0294903
0.0305956
0.0317669
0.0329748
0.0341653
0.0352567
0.0361488
0.0367478
0.037006
0.0369746
0.0367861
0.0365744
0.0365232
0.0363458
0.0359125
0.0351779
0.0341912
0.033042
0.031824
0.0306123
0.0294552
0.0283772
0.0273864
0.0264817
0.0256585
0.0249117
0.0242372
0.023632
0.0230946
0.022624
0.0222202
0.0218831
0.0216129
0.02141
0.0212746
0.0212068
0.0212068
0.0212746
0.02141
0.0216129
0.0218831
0.0222202
0.022624
0.0230946
0.023632
0.0242372
0.0249117
0.0256585
0.0264817
0.0273864
0.0283772
0.0294552
0.0306123
0.031824
0.033042
0.0341912
0.0351779
0.0359125
0.0363458
0.0365232
0.0365744
0.0362896
0.0360033
0.0356232
0.0350207
0.0341562
0.0330806
0.031879
0.0306384
0.029427
0.0282873
0.027239
0.0262861
0.0254242
0.024646
0.0239441
0.0233127
0.0227478
0.0222469
0.0218086
0.0214325
0.0211184
0.0208666
0.0206774
0.0205511
0.0204878
0.0204878
0.0205511
0.0206774
0.0208666
0.0211184
0.0214325
0.0218086
0.0222469
0.0227478
0.0233127
0.0239441
0.024646
0.0254242
0.0262861
0.027239
0.0282873
0.029427
0.0306384
0.031879
0.0330806
0.0341562
0.0350207
0.0356232
0.0360033
0.0362896
0.0359275
0.0354084
0.0348305
0.0340641
0.0330757
0.0319177
0.0306702
0.0294133
0.0282079
0.0270902
0.0260749
0.0251622
0.0243446
0.0236122
0.0229557
0.0223678
0.0218433
0.021379
0.0209731
0.0206247
0.0203338
0.0201004
0.019925
0.0198078
0.0197491
0.0197491
0.0198078
0.019925
0.0201004
0.0203338
0.0206247
0.0209731
0.021379
0.0218433
0.0223678
0.0229557
0.0236122
0.0243446
0.0251622
0.0260749
0.0270902
0.0282079
0.0294133
0.0306702
0.0319177
0.0330757
0.0340641
0.0348305
0.0354084
0.0359275
0.0354837
0.0347325
0.0339601
0.0330348
0.031929
0.0306962
0.0294109
0.0281454
0.0269527
0.0258625
0.0248844
0.0240149
0.0232435
0.0225582
0.0219479
0.0214039
0.02092
0.0204924
0.0201188
0.0197983
0.0195304
0.0193155
0.0191538
0.0190457
0.0189916
0.0189916
0.0190457
0.0191538
0.0193155
0.0195304
0.0197983
0.0201188
0.0204924
0.02092
0.0214039
0.0219479
0.0225582
0.0232435
0.0240149
0.0248844
0.0258625
0.0269527
0.0281454
0.0294109
0.0306962
0.031929
0.0330348
0.0339601
0.0347325
0.0354837
0.0349538
0.0339693
0.0330046
0.0319252
0.0307095
0.0294107
0.0280971
0.0268319
0.0256598
0.0246035
0.0236676
0.0228448
0.0221221
0.0214853
0.020922
0.0204223
0.0199793
0.0195884
0.0192471
0.0189543
0.0187095
0.0185129
0.0183649
0.0182659
0.0182163
0.0182163
0.0182659
0.0183649
0.0185129
0.0187095
0.0189543
0.0192471
0.0195884
0.0199793
0.0204223
0.020922
0.0214853
0.0221221
0.0228448
0.0236676
0.0246035
0.0256598
0.0268319
0.0280971
0.0294107
0.0307095
0.0319252
0.0330046
0.0339693
0.0349538
0.0343328
0.0331122
0.0319567
0.0307284
0.0294111
0.0280568
0.0267256
0.025471
0.0243284
0.0233133
0.022425
0.0216528
0.0209813
0.0203948
0.0198794
0.0194245
0.0190224
0.0186683
0.0183593
0.018094
0.0178721
0.0176937
0.0175593
0.0174693
0.0174243
0.0174243
0.0174693
0.0175593
0.0176937
0.0178721
0.018094
0.0183593
0.0186683
0.0190224
0.0194245
0.0198794
0.0203948
0.0209813
0.0216528
0.022425
0.0233133
0.0243284
0.025471
0.0267256
0.0280568
0.0294111
0.0307284
0.0319567
0.0331122
0.0343328
0.0336158
0.0321545
0.0308089
0.0294375
0.0280286
0.0266308
0.0252945
0.024062
0.0229586
0.0219924
0.0211576
0.0204401
0.0198227
0.0192881
0.0188216
0.0184119
0.018051
0.0177335
0.0174566
0.0172186
0.0170194
0.016859
0.016738
0.016657
0.0166163
0.0166163
0.016657
0.016738
0.016859
0.0170194
0.0172186
0.0174566
0.0177335
0.018051
0.0184119
0.0188216
0.0192881
0.0198227
0.0204401
0.0211576
0.0219924
0.0229586
0.024062
0.0252945
0.0266308
0.0280286
0.0294375
0.0308089
0.0321545
0.0336158
0.0327973
0.0310888
0.0295533
0.028046
0.0265574
0.0251302
0.023803
0.0226051
0.0215513
0.0206421
0.0198668
0.0192084
0.0186478
0.0181668
0.0177502
0.0173861
0.0170663
0.0167854
0.0165402
0.0163293
0.0161524
0.0160098
0.015902
0.0158298
0.0157935
0.0157935
0.0158298
0.015902
0.0160098
0.0161524
0.0163293
0.0165402
0.0167854
0.0170663
0.0173861
0.0177502
0.0181668
0.0186478
0.0192084
0.0198668
0.0206421
0.0215513
0.0226051
0.023803
0.0251302
0.0265574
0.028046
0.0295533
0.0310888
0.0327973
0.0318712
0.0299068
0.0281818
0.0265477
0.024994
0.0235538
0.0222513
0.0211017
0.0201085
0.0192646
0.0185548
0.0179595
0.0174584
0.0170327
0.0166668
0.0163486
0.0160699
0.0158252
0.0156115
0.0154272
0.0152723
0.0151471
0.0150523
0.0149886
0.0149566
0.0149566
0.0149886
0.0150523
0.0151471
0.0152723
0.0154272
0.0156115
0.0158252
0.0160699
0.0163486
0.0166668
0.0170327
0.0174584
0.0179595
0.0185548
0.0192646
0.0201085
0.0211017
0.0222513
0.0235538
0.024994
0.0265477
0.0281818
0.0299068
0.0318712
0.0308304
0.028599
0.0266854
0.0249366
0.0233355
0.0219016
0.0206413
0.0195544
0.018633
0.0178627
0.0172241
0.0166959
0.0162567
0.0158877
0.015573
0.015301
0.0150632
0.0148544
0.0146715
0.0145135
0.0143801
0.0142719
0.0141897
0.0141343
0.0141065
0.0141065
0.0141343
0.0141897
0.0142719
0.0143801
0.0145135
0.0146715
0.0148544
0.0150632
0.015301
0.015573
0.0158877
0.0162567
0.0166959
0.0172241
0.0178627
0.018633
0.0195544
0.0206413
0.0219016
0.0233355
0.0249366
0.0266854
0.028599
0.0308304
0.0296663
0.0271542
0.0250544
0.0232073
0.021581
0.0201753
0.0189761
0.0179668
0.0171283
0.0164396
0.0158778
0.0154201
0.015045
0.0147337
0.0144708
0.0142448
0.0140476
0.0138741
0.0137216
0.0135891
0.0134767
0.013385
0.0133151
0.0132678
0.013244
0.013244
0.0132678
0.0133151
0.013385
0.0134767
0.0135891
0.0137216
0.0138741
0.0140476
0.0142448
0.0144708
0.0147337
0.015045
0.0154201
0.0158778
0.0164396
0.0171283
0.0179668
0.0189761
0.0201753
0.021581
0.0232073
0.0250544
0.0271542
0.0296663
0.0283676
0.0255587
0.0232786
0.0213554
0.0197308
0.0183784
0.0172608
0.0163442
0.0155993
0.0149993
0.014519
0.0141349
0.0138256
0.0135729
0.0133619
0.0131816
0.0130244
0.0128856
0.0127628
0.0126551
0.012563
0.0124873
0.0124292
0.0123898
0.0123698
0.0123698
0.0123898
0.0124292
0.0124873
0.012563
0.0126551
0.0127628
0.0128856
0.0130244
0.0131816
0.0133619
0.0135729
0.0138256
0.0141349
0.014519
0.0149993
0.0155993
0.0163442
0.0172608
0.0183784
0.0197308
0.0213554
0.0232786
0.0255587
0.0283676
0.0269188
0.0237958
0.0213469
0.0193778
0.0177878
0.0165169
0.0155019
0.0146928
0.0140513
0.0135464
0.0131516
0.0128434
0.0126011
0.0124073
0.012248
0.012113
0.0119951
0.0118902
0.0117961
0.0117125
0.01164
0.0115796
0.0115329
0.0115009
0.0114847
0.0114847
0.0115009
0.0115329
0.0115796
0.01164
0.0117125
0.0117961
0.0118902
0.0119951
0.012113
0.012248
0.0124073
0.0126011
0.0128434
0.0131516
0.0135464
0.0140513
0.0146928
0.0155019
0.0165169
0.0177878
0.0193778
0.0213469
0.0237958
0.0269188
0.0252971
0.021844
0.0192477
0.0172738
0.0157576
0.0145989
0.0137078
0.0130201
0.0124905
0.0120859
0.0117795
0.0115486
0.0113739
0.011239
0.0111311
0.0110405
0.0109611
0.010889
0.0108227
0.0107622
0.0107084
0.0106627
0.0106268
0.0106019
0.0105893
0.0105893
0.0106019
0.0106268
0.0106627
0.0107084
0.0107622
0.0108227
0.010889
0.0109611
0.0110405
0.0111311
0.011239
0.0113739
0.0115486
0.0117795
0.0120859
0.0124905
0.0130201
0.0137078
0.0145989
0.0157576
0.0172738
0.0192477
0.021844
0.0252971
0.0234682
0.0196765
0.0169703
0.015046
0.0136495
0.0126354
0.0118888
0.0113346
0.0109238
0.010623
0.0104068
0.010254
0.0101468
0.0100703
0.0100128
0.0099658
0.00992359
0.00988319
0.00984356
0.00980511
0.00976914
0.00973738
0.00971165
0.00969352
0.00968415
0.00968415
0.00969352
0.00971165
0.00973738
0.00976914
0.00980511
0.00984356
0.00988319
0.00992359
0.0099658
0.0100128
0.0100703
0.0101468
0.010254
0.0104068
0.010623
0.0109238
0.0113346
0.0118888
0.0126354
0.0136495
0.015046
0.0169703
0.0196765
0.0234682
0.0213817
0.0172623
0.0145073
0.0127028
0.0114779
0.0106408
0.0100572
0.00964585
0.00935836
0.00916333
0.00903772
0.00896272
0.00892236
0.00890332
0.00889515
0.00889031
0.00888404
0.00887401
0.00885976
0.00884219
0.00882301
0.00880431
0.00878814
0.00877628
0.00877001
0.00877001
0.00877628
0.00878814
0.00880431
0.00882301
0.00884219
0.00885976
0.00887401
0.00888404
0.00889031
0.00889515
0.00890332
0.00892236
0.00896272
0.00903772
0.00916333
0.00935836
0.00964585
0.0100572
0.0106408
0.0114779
0.0127028
0.0145073
0.0172623
0.0213817
0.0189674
0.0145688
0.0118598
0.0102619
0.00926375
0.00863364
0.00822697
0.00796435
0.00780176
0.0077122
0.00767616
0.00767755
0.00770249
0.00773928
0.00777875
0.00781443
0.00784244
0.00786118
0.00787081
0.00787279
0.00786925
0.00786265
0.00785531
0.00784923
0.00784582
0.00784582
0.00784923
0.00785531
0.00786265
0.00786925
0.00787279
0.00787081
0.00786118
0.00784244
0.00781443
0.00777875
0.00773928
0.00770249
0.00767755
0.00767616
0.0077122
0.00780176
0.00796435
0.00822697
0.00863364
0.00926375
0.0102619
0.0118598
0.0145688
0.0189674
0.0161043
0.0115426
0.00902651
0.00774177
0.00702701
0.00662939
0.00640911
0.00629717
0.00625842
0.00627222
0.00632337
0.00639876
0.00648665
0.00657696
0.00666183
0.00673583
0.006796
0.00684152
0.00687324
0.00689315
0.00690389
0.00690827
0.00690893
0.00690806
0.00690723
0.00690723
0.00690806
0.00690893
0.00690827
0.00690389
0.00689315
0.00687324
0.00684152
0.006796
0.00673583
0.00666183
0.00657696
0.00648665
0.00639876
0.00632337
0.00627222
0.00625843
0.00629717
0.00640911
0.00662939
0.00702701
0.00774177
0.00902651
0.0115426
0.0161043
0.0124637
0.00802964
0.00595584
0.00512322
0.00475577
0.00461703
0.0045933
0.00463579
0.00472233
0.00484013
0.0049788
0.00512829
0.00527895
0.00542231
0.00555178
0.00566304
0.00575412
0.00582506
0.00587747
0.005914
0.00593782
0.00595218
0.00596006
0.00596388
0.00596535
0.00596535
0.00596388
0.00596006
0.00595218
0.00593782
0.005914
0.00587747
0.00582506
0.00575412
0.00566304
0.00555178
0.00542231
0.00527895
0.00512829
0.0049788
0.00484013
0.00472233
0.00463579
0.0045933
0.00461703
0.00475577
0.00512322
0.00595584
0.00802964
0.0124637
0.00738959
0.00386559
0.00262543
0.00240461
0.00244711
0.00259232
0.00277769
0.00298394
0.00320491
0.00343637
0.00367256
0.00390603
0.00412877
0.00433352
0.00451472
0.00466908
0.0047956
0.00489531
0.00497075
0.00502543
0.00506326
0.0050881
0.00510344
0.00511204
0.00511587
0.00511587
0.00511204
0.00510344
0.0050881
0.00506325
0.00502543
0.00497075
0.00489531
0.0047956
0.00466908
0.00451472
0.00433352
0.00412877
0.00390603
0.00367256
0.00343637
0.00320491
0.00298394
0.00277769
0.00259232
0.00244711
0.00240461
0.00262543
0.00386559
0.00738959
0.00132055
5.79295e-05
-0.000136481
0.000213448
0.000578934
0.000924916
0.00125094
0.00156784
0.00188368
0.00220066
0.00251557
0.0028216
0.00311056
0.00337475
0.00360832
0.0038079
0.00397268
0.00410411
0.00420534
0.00428051
0.00433422
0.00437097
0.00439473
0.00440872
0.00441515
0.00441515
0.00440872
0.00439473
0.00437097
0.00433422
0.00428051
0.00420534
0.00410411
0.00397268
0.0038079
0.00360832
0.00337475
0.00311056
0.0028216
0.00251557
0.00220066
0.00188368
0.00156784
0.00125094
0.000924916
0.000578934
0.000213448
-0.000136481
5.79295e-05
0.00132055
0.00119938
0.000877478
0.000820502
0.000913747
0.000967807
0.0010073
0.00104789
0.00110318
0.00118112
0.00128381
0.00140834
0.00154828
0.00169553
0.00184185
0.00198008
0.00210492
0.00221309
0.00230327
0.00237574
0.00243189
0.00247379
0.00250372
0.00252389
0.00253614
0.0025418
0.0025418
0.00253614
0.00252389
0.00250372
0.00247379
0.00243189
0.00237574
0.00230327
0.00221309
0.00210492
0.00198008
0.00184185
0.00169553
0.00154828
0.00140834
0.00128381
0.00118112
0.00110318
0.00104789
0.0010073
0.000967807
0.000913747
0.000820502
0.000877478
0.00119938
)
;

boundaryField
{
    left
    {
        type            zeroGradient;
    }
    right
    {
        type            zeroGradient;
    }
    up
    {
        type            fixedValue;
        value           uniform 0;
    }
    down
    {
        type            zeroGradient;
    }
    frontAndBack
    {
        type            empty;
    }
}


// ************************************************************************* //
