/*--------------------------------*- C++ -*----------------------------------*\
  =========                 |
  \\      /  F ield         | OpenFOAM: The Open Source CFD Toolbox
   \\    /   O peration     | Website:  https://openfoam.org
    \\  /    A nd           | Version:  6
     \\/     M anipulation  |
\*---------------------------------------------------------------------------*/
FoamFile
{
    version     2.0;
    format      ascii;
    class       volVectorField;
    location    "3200";
    object      U;
}
// * * * * * * * * * * * * * * * * * * * * * * * * * * * * * * * * * * * * * //

dimensions      [0 1 -1 0 0 0 0];

internalField   nonuniform List<vector> 
2500
(
(0.00690214 0.357159 -3.44187e-19)
(0.0262364 0.407047 0)
(0.0152533 0.401668 0)
(0.00939237 0.400646 0)
(0.00645386 0.400346 0)
(0.00466976 0.400194 0)
(0.00355955 0.400126 5.48457e-20)
(0.00282412 0.400089 -5.49229e-20)
(0.00230861 0.400067 0)
(0.00193012 0.400052 0)
(0.00164057 0.400041 0)
(0.00141085 0.400034 0)
(0.00122265 0.400028 0)
(0.00106405 0.400023 0)
(0.000927077 0.400019 0)
(0.000806229 0.400016 0)
(0.000697619 0.400014 0)
(0.000598424 0.400012 0)
(0.000506533 0.40001 0)
(0.000420326 0.400009 0)
(0.00033852 0.400007 0)
(0.000260068 0.400007 0)
(0.000184083 0.400006 0)
(0.000109791 0.400006 0)
(3.64881e-05 0.400005 0)
(-3.64881e-05 0.400005 0)
(-0.000109791 0.400006 0)
(-0.000184083 0.400006 0)
(-0.000260068 0.400007 0)
(-0.00033852 0.400007 0)
(-0.000420326 0.400009 0)
(-0.000506533 0.40001 0)
(-0.000598424 0.400012 0)
(-0.000697619 0.400014 0)
(-0.000806229 0.400016 0)
(-0.000927077 0.400019 0)
(-0.00106405 0.400023 0)
(-0.00122265 0.400028 0)
(-0.00141085 0.400034 0)
(-0.00164057 0.400041 0)
(-0.00193012 0.400052 0)
(-0.00230861 0.400067 0)
(-0.00282412 0.400089 -5.49229e-20)
(-0.00355955 0.400126 5.48457e-20)
(-0.00466976 0.400194 0)
(-0.00645386 0.400346 0)
(-0.00939237 0.400646 0)
(-0.0152533 0.401668 0)
(-0.0262364 0.407047 0)
(-0.00690214 0.357159 3.44187e-19)
(0.00202816 0.286971 -2.68062e-19)
(0.0461889 0.398529 2.79424e-19)
(0.0374541 0.405952 0)
(0.0268083 0.404133 0)
(0.0193798 0.402467 0)
(0.0143724 0.401492 0)
(0.0110459 0.400958 7.44345e-20)
(0.00877156 0.400652 -7.46002e-20)
(0.00715613 0.400466 6.39536e-20)
(0.0059648 0.400348 -6.40731e-20)
(0.00505385 0.40027 0)
(0.00433336 0.400217 0)
(0.00374562 0.40018 -2.57514e-20)
(0.00325264 0.400153 2.57906e-20)
(0.0028288 0.400133 0)
(0.00245641 0.400118 2.29415e-20)
(0.00212293 0.400106 -4.5213e-20)
(0.00181929 0.400098 2.22693e-20)
(0.00153873 0.400091 -1.05669e-20)
(0.00127606 0.400085 1.05793e-20)
(0.00102721 0.400081 0)
(0.000788862 0.400078 -5.03191e-21)
(0.000558231 0.400076 5.03704e-21)
(0.000332884 0.400074 2.48201e-21)
(0.000110622 0.400074 -2.48428e-21)
(-0.000110622 0.400074 -2.48428e-21)
(-0.000332884 0.400074 2.48201e-21)
(-0.000558231 0.400076 5.03704e-21)
(-0.000788862 0.400078 -5.03191e-21)
(-0.00102721 0.400081 0)
(-0.00127606 0.400085 1.05793e-20)
(-0.00153873 0.400091 -1.05669e-20)
(-0.00181929 0.400098 2.22693e-20)
(-0.00212293 0.400106 -4.5213e-20)
(-0.00245641 0.400118 2.29415e-20)
(-0.0028288 0.400133 0)
(-0.00325264 0.400153 2.57906e-20)
(-0.00374562 0.40018 -2.57514e-20)
(-0.00433336 0.400217 0)
(-0.00505385 0.40027 0)
(-0.0059648 0.400348 -6.40731e-20)
(-0.00715613 0.400466 6.39536e-20)
(-0.00877156 0.400652 -7.46002e-20)
(-0.0110459 0.400958 7.44345e-20)
(-0.0143724 0.401492 0)
(-0.0193798 0.402467 0)
(-0.0268083 0.404133 0)
(-0.0374541 0.405952 0)
(-0.0461889 0.398529 2.79424e-19)
(-0.00202816 0.286971 -2.68062e-19)
(-0.00736723 0.231581 2.29359e-19)
(0.0422609 0.378197 1.65488e-19)
(0.0476584 0.407124 -1.63508e-19)
(0.0398936 0.408814 0)
(0.0309388 0.40628 0)
(0.0237863 0.404142 0)
(0.0185965 0.402769 0)
(0.0148756 0.401915 -6.91348e-20)
(0.0121656 0.401377 6.92937e-20)
(0.010141 0.401028 -6.03216e-20)
(0.00858358 0.400796 6.04358e-20)
(0.00734954 0.400637 -5.40597e-20)
(0.00634341 0.400525 5.41495e-20)
(0.00550098 0.400445 0)
(0.00477839 0.400386 0)
(0.00414506 0.400342 0)
(0.00357924 0.400308 0)
(0.00306512 0.400283 0)
(0.00259091 0.400263 0)
(0.00214763 0.400247 -1.03333e-20)
(0.00172817 0.400236 1.03451e-20)
(0.00132681 0.400227 -5.01796e-21)
(0.000938713 0.40022 5.02315e-21)
(0.000559699 0.400216 0)
(0.000185985 0.400214 0)
(-0.000185985 0.400214 0)
(-0.000559699 0.400216 0)
(-0.000938713 0.40022 5.02315e-21)
(-0.00132681 0.400227 -5.01796e-21)
(-0.00172817 0.400236 1.03451e-20)
(-0.00214763 0.400247 -1.03333e-20)
(-0.00259091 0.400263 0)
(-0.00306512 0.400283 0)
(-0.00357924 0.400308 0)
(-0.00414506 0.400342 0)
(-0.00477839 0.400386 0)
(-0.00550098 0.400445 0)
(-0.00634341 0.400525 5.41495e-20)
(-0.00734954 0.400637 -5.40597e-20)
(-0.00858358 0.400796 6.04358e-20)
(-0.010141 0.401028 -6.03216e-20)
(-0.0121656 0.401377 6.92937e-20)
(-0.0148756 0.401915 -6.91348e-20)
(-0.0185965 0.402769 0)
(-0.0237863 0.404142 0)
(-0.0309388 0.40628 0)
(-0.0398936 0.408814 0)
(-0.0476584 0.407124 -1.63508e-19)
(-0.0422609 0.378197 1.65488e-19)
(0.00736723 0.231581 -2.29359e-19)
(-0.0143999 0.183815 0)
(0.0296243 0.349917 0)
(0.0477945 0.402168 -1.25297e-19)
(0.0471936 0.412035 1.24947e-19)
(0.0398732 0.410607 -9.28982e-20)
(0.0321466 0.407716 1.03971e-20)
(0.0257868 0.405421 8.31534e-20)
(0.0209044 0.403848 0)
(0.0172085 0.402802 0)
(0.0143851 0.402104 0)
(0.0121862 0.401631 -5.69623e-20)
(0.0104325 0.401304 5.70693e-20)
(0.00899869 0.401074 0)
(0.00779747 0.400907 2.46593e-20)
(0.00676775 0.400785 -4.84008e-20)
(0.00586634 0.400694 2.37381e-20)
(0.00506219 0.400624 0)
(0.00433259 0.400571 -2.15421e-20)
(0.00366056 0.40053 2.15694e-20)
(0.00303308 0.400498 -1.02985e-20)
(0.00243993 0.400474 1.03104e-20)
(0.00187281 0.400455 0)
(0.00132478 0.400443 0)
(0.000789798 0.400434 0)
(0.000262431 0.40043 0)
(-0.00026243 0.40043 0)
(-0.000789798 0.400434 0)
(-0.00132478 0.400443 0)
(-0.00187281 0.400455 0)
(-0.00243993 0.400474 1.03104e-20)
(-0.00303308 0.400498 -1.02985e-20)
(-0.00366056 0.40053 2.15694e-20)
(-0.00433259 0.400571 -2.15421e-20)
(-0.00506219 0.400624 0)
(-0.00586634 0.400694 2.37381e-20)
(-0.00676775 0.400785 -4.84008e-20)
(-0.00779747 0.400907 2.46593e-20)
(-0.00899869 0.401074 0)
(-0.0104325 0.401304 5.70693e-20)
(-0.0121862 0.401631 -5.69623e-20)
(-0.0143851 0.402104 0)
(-0.0172085 0.402802 0)
(-0.0209044 0.403848 0)
(-0.0257868 0.405421 8.31534e-20)
(-0.0321466 0.407716 1.03971e-20)
(-0.0398732 0.410607 -9.28982e-20)
(-0.0471936 0.412035 1.24947e-19)
(-0.0477945 0.402168 -1.25297e-19)
(-0.0296243 0.349917 0)
(0.0143999 0.183815 0)
(-0.0178146 0.146597 2.41092e-19)
(0.0159746 0.318234 -1.26405e-19)
(0.0417689 0.390686 -1.16791e-19)
(0.0491172 0.411812 1.33506e-20)
(0.0456346 0.414031 1.9364e-19)
(0.0389039 0.411477 -9.1357e-20)
(0.0322409 0.408571 -7.4809e-20)
(0.0266284 0.406293 7.50578e-20)
(0.0221487 0.40467 0)
(0.0186166 0.403542 0)
(0.015813 0.402759 0)
(0.0135521 0.40221 0)
(0.0116923 0.401818 2.5696e-20)
(0.0101294 0.401535 -5.03331e-20)
(0.00878819 0.401326 2.46326e-20)
(0.00761411 0.401169 -2.27987e-20)
(0.00656732 0.40105 2.28311e-20)
(0.0056184 0.400959 0)
(0.00474515 0.400889 1.047e-20)
(0.00393051 0.400835 -1.04828e-20)
(0.00316105 0.400793 0)
(0.00242583 0.400762 4.97684e-21)
(0.00171572 0.40074 -4.98211e-21)
(0.00102277 0.400726 0)
(0.000339824 0.400719 0)
(-0.000339824 0.400719 0)
(-0.00102277 0.400726 0)
(-0.00171572 0.40074 -4.98211e-21)
(-0.00242583 0.400762 4.97684e-21)
(-0.00316105 0.400793 0)
(-0.00393051 0.400835 -1.04828e-20)
(-0.00474515 0.400889 1.047e-20)
(-0.0056184 0.400959 0)
(-0.00656732 0.40105 2.28311e-20)
(-0.00761411 0.401169 -2.27987e-20)
(-0.00878819 0.401326 2.46326e-20)
(-0.0101294 0.401535 -5.03331e-20)
(-0.0116923 0.401818 2.5696e-20)
(-0.0135521 0.40221 0)
(-0.015813 0.402759 0)
(-0.0186166 0.403542 0)
(-0.0221487 0.40467 0)
(-0.0266284 0.406293 7.50578e-20)
(-0.0322409 0.408571 -7.4809e-20)
(-0.0389039 0.411477 -9.1357e-20)
(-0.0456346 0.414031 1.9364e-19)
(-0.0491172 0.411812 1.33506e-20)
(-0.0417689 0.390686 -1.16791e-19)
(-0.0159746 0.318234 -1.26405e-19)
(0.0178146 0.146597 6.91437e-21)
(-0.0187867 0.118869 0)
(0.0043012 0.286949 0)
(0.0329081 0.374307 0)
(0.0469549 0.407579 0)
(0.0482902 0.415569 0)
(0.0437808 0.414733 0)
(0.037681 0.411836 0)
(0.0318459 0.409058 0)
(0.0268546 0.406887 -6.38864e-20)
(0.0227527 0.405299 1.24037e-19)
(0.0194123 0.40416 -6.01207e-20)
(0.0166758 0.403345 0)
(0.0144031 0.402756 0)
(0.0124828 0.402326 0)
(0.0108302 0.402008 0)
(0.00938168 0.401769 0)
(0.00808981 0.401587 0)
(0.00691897 0.401448 0)
(0.00584201 0.40134 0)
(0.00483792 0.401257 0)
(0.00389003 0.401194 0)
(0.00298478 0.401147 0)
(0.00211079 0.401113 0)
(0.00125817 0.401091 0)
(0.000418023 0.401081 0)
(-0.000418023 0.401081 0)
(-0.00125817 0.401091 0)
(-0.00211079 0.401113 0)
(-0.00298478 0.401147 0)
(-0.00389003 0.401194 0)
(-0.00483792 0.401257 0)
(-0.00584201 0.40134 0)
(-0.00691897 0.401448 0)
(-0.00808981 0.401587 0)
(-0.00938168 0.401769 0)
(-0.0108302 0.402008 0)
(-0.0124828 0.402326 0)
(-0.0144031 0.402756 0)
(-0.0166758 0.403345 0)
(-0.0194123 0.40416 -6.01207e-20)
(-0.0227527 0.405299 1.24037e-19)
(-0.0268546 0.406887 -6.38864e-20)
(-0.0318459 0.409058 0)
(-0.037681 0.411836 0)
(-0.0437808 0.414733 0)
(-0.0482902 0.415569 0)
(-0.0469549 0.407579 0)
(-0.0329081 0.374307 0)
(-0.0043012 0.286949 0)
(0.0187867 0.118869 0)
(-0.018393 0.0982859 0)
(-0.00454581 0.25808 0)
(0.0234658 0.355047 9.95943e-20)
(0.0421679 0.399688 -9.7787e-20)
(0.0482963 0.414743 0)
(0.0467486 0.416941 0)
(0.0419453 0.414839 0)
(0.0364007 0.411926 6.77029e-20)
(0.0312093 0.40934 -6.792e-20)
(0.0267134 0.407316 0)
(0.0229315 0.405806 0)
(0.019769 0.404697 0)
(0.0171084 0.403882 0)
(0.0148426 0.403281 0)
(0.0128834 0.402832 -2.34161e-20)
(0.0111617 0.402494 2.34531e-20)
(0.00962435 0.402236 0)
(0.0082304 0.402038 0)
(0.00694823 0.401885 0)
(0.0057531 0.401767 0)
(0.00462523 0.401677 0)
(0.00354846 0.401609 0)
(0.00250918 0.401561 0)
(0.00149555 0.401531 0)
(0.000496875 0.401516 0)
(-0.000496875 0.401516 0)
(-0.00149555 0.401531 0)
(-0.00250918 0.401561 0)
(-0.00354846 0.401609 0)
(-0.00462523 0.401677 0)
(-0.0057531 0.401767 0)
(-0.00694823 0.401885 0)
(-0.0082304 0.402038 0)
(-0.00962435 0.402236 0)
(-0.0111617 0.402494 2.34531e-20)
(-0.0128834 0.402832 -2.34161e-20)
(-0.0148426 0.403281 0)
(-0.0171084 0.403882 0)
(-0.019769 0.404697 0)
(-0.0229315 0.405806 0)
(-0.0267134 0.407316 0)
(-0.0312093 0.40934 -6.792e-20)
(-0.0364007 0.411926 6.77029e-20)
(-0.0419453 0.414839 0)
(-0.0467486 0.416941 0)
(-0.0482963 0.414743 0)
(-0.0421679 0.399688 -9.7787e-20)
(-0.0234658 0.355047 9.95943e-20)
(0.00454581 0.25808 0)
(0.018393 0.0982859 0)
(-0.0172856 0.0829464 -5.97809e-20)
(-0.0106546 0.23243 0)
(0.0147599 0.334587 0)
(0.0360433 0.388899 0)
(0.0462958 0.411475 0)
(0.0479719 0.417741 -7.64707e-20)
(0.0449885 0.41725 5.29955e-21)
(0.0401928 0.414671 4.83871e-21)
(0.0351194 0.411892 1.29511e-19)
(0.0304276 0.409519 -6.27895e-20)
(0.0263203 0.407657 0)
(0.0227975 0.406244 0)
(0.019785 0.405186 2.52951e-20)
(0.0171926 0.404393 -2.53435e-20)
(0.0149366 0.403796 0)
(0.0129463 0.403343 -2.24411e-20)
(0.0111652 0.402996 4.41983e-20)
(0.00954848 0.402729 -6.46533e-22)
(0.00806066 0.402523 -1.08421e-20)
(0.00667368 0.402364 -1.03065e-20)
(0.00536488 0.402242 -9.90641e-21)
(0.0041156 0.402151 9.91764e-21)
(0.00291003 0.402086 -4.84314e-21)
(0.00173439 0.402044 7.25719e-21)
(0.000576213 0.402024 -2.41143e-21)
(-0.000576213 0.402024 -2.41143e-21)
(-0.00173439 0.402044 7.25719e-21)
(-0.00291003 0.402086 -4.84314e-21)
(-0.0041156 0.402151 9.91764e-21)
(-0.00536488 0.402242 -9.90641e-21)
(-0.00667368 0.402364 -1.03065e-20)
(-0.00806066 0.402523 -1.08421e-20)
(-0.00954848 0.402729 -6.46533e-22)
(-0.0111652 0.402996 4.41983e-20)
(-0.0129463 0.403343 -2.24411e-20)
(-0.0149366 0.403796 0)
(-0.0171926 0.404393 -2.53435e-20)
(-0.019785 0.405186 2.52951e-20)
(-0.0227975 0.406244 0)
(-0.0263203 0.407657 0)
(-0.0304276 0.409519 -6.27895e-20)
(-0.0351194 0.411892 1.29511e-19)
(-0.0401928 0.414671 4.83871e-21)
(-0.0449885 0.41725 5.29955e-21)
(-0.0479719 0.417741 -7.64707e-20)
(-0.0462958 0.411475 0)
(-0.0360433 0.388899 0)
(-0.0147599 0.334587 0)
(0.0106546 0.23243 0)
(0.0172856 0.0829464 5.97809e-20)
(-0.0158547 0.0714568 0)
(-0.0144819 0.210171 -8.25937e-20)
(0.00742287 0.314157 7.91188e-20)
(0.0295611 0.376085 0)
(0.0429626 0.405973 0)
(0.0477402 0.416967 0)
(0.0468663 0.418818 0)
(0.0431815 0.417085 0)
(0.0385211 0.414402 0)
(0.0338372 0.411819 0)
(0.0295338 0.40966 0)
(0.0257286 0.407959 0)
(0.0224098 0.406651 0)
(0.0195169 0.405654 0)
(0.0169784 0.404895 0)
(0.0147274 0.404314 0)
(0.0127066 0.403867 0)
(0.0108688 0.403522 0)
(0.00917599 0.403254 0)
(0.00759719 0.403047 0)
(0.00610715 0.402889 0)
(0.00468485 0.402771 0)
(0.00331241 0.402687 0)
(0.00197416 0.402633 0)
(0.000655863 0.402606 0)
(-0.000655863 0.402606 0)
(-0.00197416 0.402633 0)
(-0.00331241 0.402687 0)
(-0.00468485 0.402771 0)
(-0.00610715 0.402889 0)
(-0.00759719 0.403047 0)
(-0.00917599 0.403254 0)
(-0.0108688 0.403522 0)
(-0.0127066 0.403867 0)
(-0.0147274 0.404314 0)
(-0.0169784 0.404895 0)
(-0.0195169 0.405654 0)
(-0.0224098 0.406651 0)
(-0.0257286 0.407959 0)
(-0.0295338 0.40966 0)
(-0.0338372 0.411819 0)
(-0.0385211 0.414402 0)
(-0.0431815 0.417085 0)
(-0.0468663 0.418818 0)
(-0.0477402 0.416967 0)
(-0.0429626 0.405973 0)
(-0.0295611 0.376085 0)
(-0.00742287 0.314157 7.91188e-20)
(0.0144819 0.210171 -8.25937e-20)
(0.0158547 0.0714568 0)
(-0.0143298 0.0627779 0)
(-0.0165633 0.191138 0)
(0.00164506 0.294579 0)
(0.023381 0.362079 7.84846e-20)
(0.0389011 0.398614 -1.82129e-21)
(0.0463999 0.414621 -7.50503e-20)
(0.0477094 0.419387 0)
(0.0453804 0.418998 6.42047e-20)
(0.0413821 0.416737 -3.65311e-21)
(0.0369003 0.414127 -6.08946e-20)
(0.0325345 0.411761 2.73159e-20)
(0.0285331 0.409806 -1.3707e-21)
(0.0249612 0.408257 -2.60726e-20)
(0.0217997 0.407053 0)
(0.0189976 0.406123 2.28948e-20)
(0.0164966 0.405404 -2.29336e-20)
(0.0142421 0.404847 2.13854e-20)
(0.0121868 0.404415 -1.10264e-20)
(0.0102908 0.404079 -1.04041e-20)
(0.00852103 0.403818 0)
(0.00685007 0.403619 0)
(0.0052548 0.40347 -4.81098e-21)
(0.00371539 0.403364 4.81618e-21)
(0.00221431 0.403295 0)
(0.000735643 0.403262 0)
(-0.000735643 0.403262 0)
(-0.00221431 0.403295 0)
(-0.00371539 0.403364 4.81618e-21)
(-0.0052548 0.40347 -4.81098e-21)
(-0.00685007 0.403619 0)
(-0.00852103 0.403818 0)
(-0.0102908 0.404079 -1.04041e-20)
(-0.0121868 0.404415 -1.10264e-20)
(-0.0142421 0.404847 2.13854e-20)
(-0.0164966 0.405404 -2.29336e-20)
(-0.0189976 0.406123 2.28948e-20)
(-0.0217997 0.407053 0)
(-0.0249612 0.408257 -2.60726e-20)
(-0.0285331 0.409806 -1.3707e-21)
(-0.0325345 0.411761 2.73159e-20)
(-0.0369003 0.414127 -6.08946e-20)
(-0.0413821 0.416737 -3.65311e-21)
(-0.0453804 0.418998 6.42047e-20)
(-0.0477094 0.419387 0)
(-0.0463999 0.414621 -7.50503e-20)
(-0.0389011 0.398614 -1.82129e-21)
(-0.023381 0.362079 7.84846e-20)
(-0.00164506 0.294579 0)
(0.0165633 0.191138 0)
(0.0143298 0.0627779 0)
(-0.0128352 0.0561425 1.01756e-19)
(-0.0173812 0.175 -5.71117e-20)
(-0.00263338 0.276345 0)
(0.0178915 0.347587 0)
(0.0345975 0.389846 0)
(0.0443008 0.410833 6.94634e-20)
(0.0476948 0.418898 -6.92939e-20)
(0.0468474 0.420285 0)
(0.0437004 0.41878 -5.96254e-20)
(0.0395924 0.416354 8.81049e-20)
(0.0352941 0.413898 -5.53481e-20)
(0.031186 0.411748 2.70183e-20)
(0.0274192 0.409982 2.45759e-20)
(0.0240259 0.408575 -2.46273e-20)
(0.0209828 0.40747 -2.26696e-20)
(0.0182456 0.406607 2.27087e-20)
(0.0157658 0.405932 -2.11856e-20)
(0.0134978 0.405406 3.15108e-20)
(0.0114015 0.404995 -2.67582e-22)
(0.00944249 0.404675 -1.00535e-20)
(0.00759163 0.40443 0)
(0.00582399 0.404247 4.76699e-21)
(0.00411794 0.404116 -4.77214e-21)
(0.00245425 0.404032 0)
(0.000815361 0.403991 0)
(-0.000815361 0.403991 0)
(-0.00245425 0.404032 0)
(-0.00411794 0.404116 -4.77214e-21)
(-0.00582399 0.404247 4.76699e-21)
(-0.00759163 0.40443 0)
(-0.00944249 0.404675 -1.00535e-20)
(-0.0114015 0.404995 -2.67582e-22)
(-0.0134978 0.405406 3.15108e-20)
(-0.0157658 0.405932 -2.11856e-20)
(-0.0182456 0.406607 2.27087e-20)
(-0.0209828 0.40747 -2.26696e-20)
(-0.0240259 0.408575 -2.46273e-20)
(-0.0274192 0.409982 2.45759e-20)
(-0.031186 0.411748 2.70183e-20)
(-0.0352941 0.413898 -5.53481e-20)
(-0.0395924 0.416354 8.81049e-20)
(-0.0437004 0.41878 -5.96254e-20)
(-0.0468474 0.420285 0)
(-0.0476948 0.418898 -6.92939e-20)
(-0.0443008 0.410833 6.94634e-20)
(-0.0345975 0.389846 0)
(-0.0178915 0.347587 0)
(0.00263338 0.276345 0)
(0.0173812 0.175 -5.71117e-20)
(0.0128352 0.0561425 8.02536e-21)
(-0.0114297 0.0509963 0)
(-0.0173223 0.161374 0)
(-0.00559176 0.259696 0)
(0.0132791 0.333155 0)
(0.0304087 0.380123 0)
(0.04176 0.405812 6.72362e-20)
(0.0470193 0.417369 -6.69615e-20)
(0.0476723 0.420878 0)
(0.0455 0.420442 2.92313e-20)
(0.0419061 0.418422 -5.71426e-20)
(0.0377943 0.416014 2.79143e-20)
(0.0336676 0.413745 0)
(0.0297669 0.411799 0)
(0.0261818 0.410205 0)
(0.0229234 0.408928 0)
(0.0199663 0.407917 0)
(0.0172713 0.40712 -1.04827e-20)
(0.0147971 0.406493 1.04982e-20)
(0.0125045 0.406001 0)
(0.0103588 0.405618 0)
(0.00832975 0.405323 0)
(0.00639089 0.405102 0)
(0.00451904 0.404945 -2.33782e-21)
(0.00269339 0.404844 1.17739e-21)
(0.000894819 0.404794 1.16395e-21)
(-0.000894819 0.404794 1.16395e-21)
(-0.00269339 0.404844 1.17739e-21)
(-0.00451904 0.404945 -2.33782e-21)
(-0.00639089 0.405102 0)
(-0.00832975 0.405323 0)
(-0.0103588 0.405618 0)
(-0.0125045 0.406001 0)
(-0.0147971 0.406493 1.04982e-20)
(-0.0172713 0.40712 -1.04827e-20)
(-0.0199663 0.407917 0)
(-0.0229234 0.408928 0)
(-0.0261818 0.410205 0)
(-0.0297669 0.411799 0)
(-0.0336676 0.413745 0)
(-0.0377943 0.416014 2.79143e-20)
(-0.0419061 0.418422 -5.71426e-20)
(-0.0455 0.420442 2.92313e-20)
(-0.0476723 0.420878 0)
(-0.0470193 0.417369 -6.69615e-20)
(-0.04176 0.405812 6.72362e-20)
(-0.0304087 0.380123 0)
(-0.0132791 0.333155 0)
(0.00559176 0.259696 0)
(0.0173223 0.161374 0)
(0.0114297 0.0509963 0)
(-0.0101347 0.0469444 0)
(-0.0166765 0.149881 0)
(-0.00744925 0.244705 0)
(0.00959345 0.31918 0)
(0.0265739 0.369855 0)
(0.0390429 0.399811 0)
(0.0458781 0.414882 -6.26101e-20)
(0.0479641 0.420753 6.25121e-20)
(0.0468258 0.421658 0)
(0.0438499 0.420264 0)
(0.0400268 0.418054 0)
(0.0359643 0.415757 0)
(0.0319901 0.413681 0)
(0.0282552 0.411924 0)
(0.0248095 0.410485 0)
(0.0216508 0.409327 0)
(0.0187527 0.408404 1.03624e-20)
(0.0160799 0.407673 -1.03779e-20)
(0.0135962 0.407096 0)
(0.0112672 0.406645 -9.62455e-21)
(0.00906233 0.406297 1.43664e-20)
(0.00695396 0.406035 -6.77511e-23)
(0.00491762 0.405849 -2.3605e-21)
(0.0029311 0.405729 -2.31475e-21)
(0.000973815 0.40567 0)
(-0.000973815 0.40567 0)
(-0.0029311 0.405729 -2.31475e-21)
(-0.00491762 0.405849 -2.3605e-21)
(-0.00695396 0.406035 -6.77511e-23)
(-0.00906233 0.406297 1.43664e-20)
(-0.0112672 0.406645 -9.62455e-21)
(-0.0135962 0.407096 0)
(-0.0160799 0.407673 -1.03779e-20)
(-0.0187527 0.408404 1.03624e-20)
(-0.0216508 0.409327 0)
(-0.0248095 0.410485 0)
(-0.0282552 0.411924 0)
(-0.0319901 0.413681 0)
(-0.0359643 0.415757 0)
(-0.0400268 0.418054 0)
(-0.0438499 0.420264 0)
(-0.0468258 0.421658 0)
(-0.0479641 0.420753 6.25121e-20)
(-0.0458781 0.414882 -6.26101e-20)
(-0.0390429 0.399811 0)
(-0.0265739 0.369855 0)
(-0.00959345 0.31918 0)
(0.00744925 0.244705 0)
(0.0166765 0.149881 0)
(0.0101347 0.0469444 0)
(-0.00895175 0.0437068 4.54754e-20)
(-0.0156509 0.140178 6.15782e-20)
(-0.00842129 0.231341 5.7518e-21)
(0.00680033 0.305928 -6.30655e-20)
(0.023235 0.359391 0)
(0.0363565 0.393088 6.31814e-20)
(0.0444501 0.411564 -6.27245e-20)
(0.0478392 0.419932 0)
(0.0477373 0.422395 0)
(0.0454453 0.421832 2.68064e-20)
(0.0419927 0.419972 -1.20586e-21)
(0.0380681 0.417747 -5.02926e-20)
(0.0340785 0.415602 2.46332e-20)
(0.0302359 0.413714 0)
(0.0266324 0.412128 0)
(0.023292 0.410829 0)
(0.020204 0.409781 1.02321e-20)
(0.0173417 0.408942 -1.02475e-20)
(0.0146729 0.408277 0)
(0.0121649 0.407754 0)
(0.0097872 0.407349 0)
(0.00751161 0.407045 -4.61267e-21)
(0.00531261 0.406827 4.61758e-21)
(0.00316674 0.406687 0)
(0.00105214 0.406618 0)
(-0.00105214 0.406618 0)
(-0.00316674 0.406687 0)
(-0.00531261 0.406827 4.61758e-21)
(-0.00751161 0.407045 -4.61267e-21)
(-0.0097872 0.407349 0)
(-0.0121649 0.407754 0)
(-0.0146729 0.408277 0)
(-0.0173417 0.408942 -1.02475e-20)
(-0.020204 0.409781 1.02321e-20)
(-0.023292 0.410829 0)
(-0.0266324 0.412128 0)
(-0.0302359 0.413714 0)
(-0.0340785 0.415602 2.46332e-20)
(-0.0380681 0.417747 -5.02926e-20)
(-0.0419927 0.419972 -1.20586e-21)
(-0.0454453 0.421832 2.68064e-20)
(-0.0477373 0.422395 0)
(-0.0478392 0.419932 0)
(-0.0444501 0.411564 -6.27245e-20)
(-0.0363565 0.393088 6.31814e-20)
(-0.023235 0.359391 0)
(-0.00680033 0.305928 -6.30655e-20)
(0.00842129 0.231341 5.7518e-21)
(0.0156509 0.140178 6.15782e-20)
(0.00895175 0.0437068 -4.54754e-20)
(-0.00787264 0.0410847 0)
(-0.0143889 0.131972 -5.99107e-20)
(-0.0086988 0.219509 -5.16005e-21)
(0.00482 0.293559 -2.67476e-21)
(0.0204608 0.349011 1.25238e-19)
(0.0338517 0.385894 -6.20312e-20)
(0.0428895 0.407561 0)
(0.0474121 0.418468 2.85373e-20)
(0.0483023 0.422648 -1.12083e-21)
(0.0467242 0.423091 -1.15251e-21)
(0.0437013 0.421729 -2.6307e-20)
(0.039977 0.419682 0)
(0.0360251 0.417534 0)
(0.0321158 0.415555 0)
(0.0283842 0.413844 0)
(0.0248832 0.412414 0)
(0.0216198 0.411244 1.00917e-20)
(0.018578 0.410298 -1.01069e-20)
(0.015731 0.409542 0)
(0.013049 0.408944 0)
(0.0105022 0.40848 -4.61378e-21)
(0.00806226 0.40813 4.61897e-21)
(0.0057029 0.407879 -2.25596e-21)
(0.00339969 0.407717 1.13606e-21)
(0.00112958 0.407638 1.12322e-21)
(-0.00112958 0.407638 1.12322e-21)
(-0.00339969 0.407717 1.13606e-21)
(-0.0057029 0.407879 -2.25596e-21)
(-0.00806226 0.40813 4.61897e-21)
(-0.0105022 0.40848 -4.61378e-21)
(-0.013049 0.408944 0)
(-0.015731 0.409542 0)
(-0.018578 0.410298 -1.01069e-20)
(-0.0216198 0.411244 1.00917e-20)
(-0.0248832 0.412414 0)
(-0.0283842 0.413844 0)
(-0.0321158 0.415555 0)
(-0.0360251 0.417534 0)
(-0.039977 0.419682 0)
(-0.0437013 0.421729 -2.6307e-20)
(-0.0467242 0.423091 -1.15251e-21)
(-0.0483023 0.422648 -1.12083e-21)
(-0.0474121 0.418468 2.85373e-20)
(-0.0428895 0.407561 0)
(-0.0338517 0.385894 -6.20312e-20)
(-0.0204608 0.349011 1.25238e-19)
(-0.00482 0.293559 -2.67476e-21)
(0.0086988 0.219509 -5.16005e-21)
(0.0143889 0.131972 -5.99107e-20)
(0.00787264 0.0410847 0)
(-0.00688518 0.0389364 -4.61304e-20)
(-0.0129863 0.125016 0)
(-0.00844095 0.209086 -6.12195e-20)
(0.00355321 0.282158 1.21265e-19)
(0.018268 0.33893 -6.04346e-20)
(0.0316303 0.378452 0)
(0.0413221 0.403033 -2.88962e-20)
(0.0467889 0.416439 2.87489e-20)
(0.0485919 0.422434 0)
(0.0477252 0.424027 -2.5705e-20)
(0.0451691 0.423297 2.57398e-20)
(0.041694 0.421532 0)
(0.0378264 0.419454 2.2791e-20)
(0.0338889 0.41743 -4.47875e-20)
(0.0300585 0.41562 2.19925e-20)
(0.0264182 0.414073 -1.02473e-20)
(0.0229949 0.412786 1.02641e-20)
(0.0197844 0.411734 0)
(0.0167671 0.410886 9.44486e-21)
(0.0139169 0.410213 -9.45702e-21)
(0.0112052 0.409687 0)
(0.00860429 0.40929 0)
(0.00608739 0.409004 0)
(0.00362928 0.40882 0)
(0.00120592 0.408729 0)
(-0.00120592 0.408729 0)
(-0.00362928 0.40882 0)
(-0.00608739 0.409004 0)
(-0.00860429 0.40929 0)
(-0.0112052 0.409687 0)
(-0.0139169 0.410213 -9.45702e-21)
(-0.0167671 0.410886 9.44486e-21)
(-0.0197844 0.411734 0)
(-0.0229949 0.412786 1.02641e-20)
(-0.0264182 0.414073 -1.02473e-20)
(-0.0300585 0.41562 2.19925e-20)
(-0.0338889 0.41743 -4.47875e-20)
(-0.0378264 0.419454 2.2791e-20)
(-0.041694 0.421532 0)
(-0.0451691 0.423297 2.57398e-20)
(-0.0477252 0.424027 -2.5705e-20)
(-0.0485919 0.422434 0)
(-0.0467889 0.416439 2.87489e-20)
(-0.0413221 0.403033 -2.88962e-20)
(-0.0316303 0.378452 0)
(-0.018268 0.33893 -6.04346e-20)
(-0.00355321 0.282158 1.21265e-19)
(0.00844095 0.209086 -6.12195e-20)
(0.0129863 0.125016 0)
(0.00688518 0.0389364 4.61304e-20)
(-0.00597634 0.0371602 0)
(-0.011506 0.119106 0)
(-0.00777527 0.199939 0)
(0.00289738 0.271753 0)
(0.0166394 0.329302 2.98023e-20)
(0.0297534 0.370954 -2.92936e-20)
(0.0398449 0.398136 0)
(0.0460629 0.413937 0)
(0.0486754 0.421788 0)
(0.048491 0.424639 -2.5141e-20)
(0.0464174 0.424659 2.51641e-20)
(0.0432267 0.423276 -2.32354e-20)
(0.0394823 0.421342 2.32795e-20)
(0.0355513 0.419322 0)
(0.0316502 0.417443 0)
(0.027892 0.415795 0)
(0.0243244 0.414401 0)
(0.0209569 0.413247 0)
(0.0177779 0.412308 0)
(0.0147656 0.411557 0)
(0.0118941 0.410969 -4.48111e-21)
(0.00913613 0.410522 4.48607e-21)
(0.00646497 0.410201 0)
(0.00385487 0.409993 0)
(0.00128096 0.409891 0)
(-0.00128096 0.409891 0)
(-0.00385487 0.409993 0)
(-0.00646497 0.410201 0)
(-0.00913613 0.410522 4.48607e-21)
(-0.0118941 0.410969 -4.48111e-21)
(-0.0147656 0.411557 0)
(-0.0177779 0.412308 0)
(-0.0209569 0.413247 0)
(-0.0243244 0.414401 0)
(-0.027892 0.415795 0)
(-0.0316502 0.417443 0)
(-0.0355513 0.419322 0)
(-0.0394823 0.421342 2.32795e-20)
(-0.0432267 0.423276 -2.32354e-20)
(-0.0464174 0.424659 2.51641e-20)
(-0.048491 0.424639 -2.5141e-20)
(-0.0486754 0.421788 0)
(-0.0460629 0.413937 0)
(-0.0398449 0.398136 0)
(-0.0297534 0.370954 -2.92936e-20)
(-0.0166394 0.329302 2.98023e-20)
(-0.00289738 0.271753 0)
(0.00777527 0.199939 0)
(0.011506 0.119106 0)
(0.00597634 0.0371602 0)
(-0.00513379 0.0356818 -2.47551e-20)
(-0.00998745 0.114076 2.61043e-20)
(-0.00680116 0.191936 0)
(0.00275569 0.262334 0)
(0.0155373 0.320235 0)
(0.0282508 0.363559 2.83721e-20)
(0.0385285 0.393015 -2.80317e-20)
(0.0453125 0.411063 0)
(0.0486175 0.420763 0)
(0.0490654 0.42494 0)
(0.047471 0.425807 0)
(0.0445864 0.424897 0)
(0.0409956 0.423178 -1.09589e-20)
(0.0371013 0.421214 1.09792e-20)
(0.0331555 0.419299 0)
(0.0293001 0.417572 0)
(0.0256043 0.416081 0)
(0.0220917 0.41483 0)
(0.01876 0.413803 -4.57224e-21)
(0.0155928 0.412975 4.57808e-21)
(0.0125668 0.412323 0)
(0.00965619 0.411826 -2.17634e-21)
(0.00683456 0.411468 2.17856e-21)
(0.00407581 0.411235 0)
(0.00135446 0.411121 0)
(-0.00135446 0.411121 0)
(-0.00407581 0.411235 0)
(-0.00683456 0.411468 2.17856e-21)
(-0.00965619 0.411826 -2.17634e-21)
(-0.0125668 0.412323 0)
(-0.0155928 0.412975 4.57808e-21)
(-0.01876 0.413803 -4.57224e-21)
(-0.0220917 0.41483 0)
(-0.0256043 0.416081 0)
(-0.0293001 0.417572 0)
(-0.0331555 0.419299 0)
(-0.0371013 0.421214 1.09792e-20)
(-0.0409956 0.423178 -1.09589e-20)
(-0.0445864 0.424897 0)
(-0.047471 0.425807 0)
(-0.0490654 0.42494 0)
(-0.0486175 0.420763 0)
(-0.0453125 0.411063 0)
(-0.0385285 0.393015 -2.80317e-20)
(-0.0282508 0.363559 2.83721e-20)
(-0.0155373 0.320235 0)
(-0.00275569 0.262334 0)
(0.00680116 0.191936 0)
(0.00998745 0.114076 2.61043e-20)
(0.00513379 0.0356818 -2.47551e-20)
(-0.00434648 0.034447 0)
(-0.00845499 0.109794 0)
(-0.00559465 0.184955 -2.88212e-20)
(0.00304164 0.253869 5.68658e-20)
(0.0149131 0.311796 -2.81725e-20)
(0.0271294 0.356394 0)
(0.0374206 0.387802 0)
(0.0446003 0.407918 0)
(0.0484757 0.419416 2.49292e-20)
(0.0494911 0.424957 -2.48858e-20)
(0.0483565 0.426744 0)
(0.0457867 0.426385 0)
(0.0423713 0.424951 0)
(0.0385388 0.423092 -1.0356e-20)
(0.0345717 0.421178 1.03743e-20)
(0.030639 0.419393 0)
(0.0268307 0.41782 9.43191e-21)
(0.0231854 0.416479 -9.44599e-21)
(0.0197105 0.415366 0)
(0.0163957 0.414463 0)
(0.0132212 0.413747 0)
(0.010163 0.413199 0)
(0.00719508 0.412803 2.12e-21)
(0.00429147 0.412546 -1.06729e-21)
(0.00142624 0.412419 -1.05562e-21)
(-0.00142624 0.412419 -1.05562e-21)
(-0.00429147 0.412546 -1.06729e-21)
(-0.00719508 0.412803 2.12e-21)
(-0.010163 0.413199 0)
(-0.0132212 0.413747 0)
(-0.0163957 0.414463 0)
(-0.0197105 0.415366 0)
(-0.0231854 0.416479 -9.44599e-21)
(-0.0268307 0.41782 9.43191e-21)
(-0.030639 0.419393 0)
(-0.0345717 0.421178 1.03743e-20)
(-0.0385388 0.423092 -1.0356e-20)
(-0.0423713 0.424951 0)
(-0.0457867 0.426385 0)
(-0.0483565 0.426744 0)
(-0.0494911 0.424957 -2.48858e-20)
(-0.0484757 0.419416 2.49292e-20)
(-0.0446003 0.407918 0)
(-0.0374206 0.387802 0)
(-0.0271294 0.356394 0)
(-0.0149131 0.311796 -2.81725e-20)
(-0.00304164 0.253869 5.68658e-20)
(0.00559465 0.184955 -2.88212e-20)
(0.00845499 0.109794 0)
(0.00434648 0.034447 0)
(-0.00360491 0.0334148 0)
(-0.00692273 0.106148 0)
(-0.00421313 0.178885 2.83856e-20)
(0.00368048 0.246309 -2.76039e-20)
(0.0147147 0.304025 2.78267e-20)
(0.0263796 0.349557 -2.73089e-20)
(0.0365496 0.382613 0)
(0.0439744 0.404599 0)
(0.0482991 0.417815 0)
(0.0498077 0.424723 0)
(0.049101 0.42748 0)
(0.0468432 0.427739 0)
(0.0436165 0.426649 0)
(0.0398657 0.424947 1.01306e-20)
(0.0358977 0.423068 -3.4338e-22)
(0.0319059 0.421251 -9.82047e-21)
(0.0280004 0.419609 0)
(0.0242347 0.418188 0)
(0.0206265 0.416994 0)
(0.017172 0.416017 -4.31975e-21)
(0.0138555 0.415238 4.32474e-21)
(0.0106549 0.414639 0)
(0.00754547 0.414204 0)
(0.00450123 0.413922 0)
(0.00149607 0.413783 0)
(-0.00149607 0.413783 0)
(-0.00450123 0.413922 0)
(-0.00754547 0.414204 0)
(-0.0106549 0.414639 0)
(-0.0138555 0.415238 4.32474e-21)
(-0.017172 0.416017 -4.31975e-21)
(-0.0206265 0.416994 0)
(-0.0242347 0.418188 0)
(-0.0280004 0.419609 0)
(-0.0319059 0.421251 -9.82047e-21)
(-0.0358977 0.423068 -3.4338e-22)
(-0.0398657 0.424947 1.01306e-20)
(-0.0436165 0.426649 0)
(-0.0468432 0.427739 0)
(-0.049101 0.42748 0)
(-0.0498077 0.424723 0)
(-0.0482991 0.417815 0)
(-0.0439744 0.404599 0)
(-0.0365496 0.382613 0)
(-0.0263796 0.349557 -2.73089e-20)
(-0.0147147 0.304025 2.78267e-20)
(-0.00368048 0.246309 -2.76039e-20)
(0.00421313 0.178885 2.83856e-20)
(0.00692273 0.106148 0)
(0.00360491 0.0334148 0)
(-0.002901 0.0325544 2.48734e-20)
(-0.00539832 0.103053 -5.40304e-20)
(-0.00269957 0.173626 5.49319e-20)
(0.00460905 0.239602 -2.72383e-20)
(0.0148897 0.296935 0)
(0.0259813 0.34312 0)
(0.0359287 0.377544 0)
(0.0434688 0.401196 0)
(0.0481281 0.416025 0)
(0.0500507 0.424278 0)
(0.0497303 0.428033 -1.09995e-20)
(0.0477719 0.42896 1.10024e-20)
(0.0447395 0.428268 1.02372e-20)
(0.0410847 0.426768 -3.55438e-22)
(0.0371331 0.424961 -9.91188e-21)
(0.0330989 0.423136 0)
(0.0291108 0.421443 -4.52264e-21)
(0.0252369 0.419951 4.5292e-21)
(0.0215054 0.418682 0)
(0.0179195 0.417634 0)
(0.0144677 0.416793 0)
(0.0111307 0.416143 2.05784e-21)
(0.00788472 0.415671 -2.05983e-21)
(0.00470447 0.415362 5.07564e-22)