/*--------------------------------*- C++ -*----------------------------------*\
  =========                 |
  \\      /  F ield         | OpenFOAM: The Open Source CFD Toolbox
   \\    /   O peration     | Website:  https://openfoam.org
    \\  /    A nd           | Version:  6
     \\/     M anipulation  |
\*---------------------------------------------------------------------------*/
FoamFile
{
    version     2.0;
    format      ascii;
    class       volScalarField;
    location    "3200";
    object      p;
}
// * * * * * * * * * * * * * * * * * * * * * * * * * * * * * * * * * * * * * //

dimensions      [0 2 -2 0 0 0 0];

internalField   nonuniform List<scalar> 
2500
(
0.299934
0.135279
0.0931384
0.0760376
0.0654795
0.0587693
0.0539782
0.0502553
0.0472136
0.0446435
0.0424237
0.0404798
0.0387638
0.0372435
0.0358959
0.0347047
0.0336575
0.0327448
0.0319594
0.0312954
0.0307484
0.0303147
0.0299917
0.0297774
0.0296706
0.0296706
0.0297774
0.0299917
0.0303147
0.0307484
0.0312954
0.0319594
0.0327448
0.0336575
0.0347047
0.0358959
0.0372435
0.0387638
0.0404798
0.0424237
0.0446435
0.0472136
0.0502553
0.0539782
0.0587693
0.0654795
0.0760376
0.0931384
0.135279
0.299934
0.223894
0.137696
0.0994275
0.0798946
0.0680526
0.0604785
0.0551654
0.0511234
0.0478746
0.0451627
0.0428406
0.0408199
0.039044
0.0374755
0.0360886
0.0348648
0.0337903
0.0328548
0.0320503
0.0313707
0.0308109
0.0303674
0.030037
0.0298179
0.0297087
0.0297087
0.0298179
0.030037
0.0303674
0.0308109
0.0313707
0.0320503
0.0328548
0.0337903
0.0348648
0.0360886
0.0374755
0.039044
0.0408199
0.0428406
0.0451627
0.0478746
0.0511234
0.0551654
0.0604785
0.0680526
0.0798946
0.0994275
0.137696
0.223894
0.138821
0.12211
0.099289
0.0815152
0.0697587
0.0618292
0.0561755
0.0518878
0.0484663
0.0456304
0.0432167
0.0411256
0.0392943
0.037681
0.0362572
0.0350026
0.0339023
0.0329451
0.0321226
0.031428
0.0308561
0.0304031
0.0300658
0.0298421
0.0297306
0.0297306
0.0298421
0.0300658
0.0304031
0.0308561
0.031428
0.0321226
0.0329451
0.0339023
0.0350026
0.0362572
0.037681
0.0392943
0.0411256
0.0432167
0.0456304
0.0484663
0.0518878
0.0561755
0.0618292
0.0697587
0.0815152
0.099289
0.12211
0.138821
0.086134
0.100566
0.0926678
0.0799029
0.0698575
0.0623617
0.056734
0.0523755
0.0488713
0.0459621
0.0434873
0.041346
0.039473
0.0378249
0.0363717
0.0350922
0.0339707
0.0329956
0.0321579
0.0314508
0.0308688
0.0304078
0.0300646
0.0298371
0.0297236
0.0297236
0.0298371
0.0300646
0.0304078
0.0308688
0.0314508
0.0321579
0.0329956
0.0339707
0.0350922
0.0363717
0.0378249
0.039473
0.041346
0.0434873
0.0459621
0.0488713
0.0523755
0.056734
0.0623617
0.0698575
0.0799029
0.0926678
0.100566
0.086134
0.057113
0.081835
0.08372
0.0763173
0.0686902
0.0621618
0.0568742
0.0526119
0.049114
0.0461807
0.0436735
0.0414996
0.0395964
0.0379212
0.0364441
0.0351437
0.0340041
0.0330134
0.0321625
0.0314443
0.0308532
0.0303851
0.0300367
0.0298057
0.0296905
0.0296905
0.0298057
0.0300367
0.0303851
0.0308532
0.0314443
0.0321625
0.0330134
0.0340041
0.0351437
0.0364441
0.0379212
0.0395964
0.0414996
0.0436735
0.0461807
0.049114
0.0526119
0.0568742
0.0621618
0.0686902
0.0763173
0.08372
0.081835
0.057113
0.0408952
0.0673338
0.0748293
0.0718789
0.0666981
0.0613779
0.0566411
0.0526115
0.049201
0.0462911
0.0437799
0.0415908
0.0396685
0.0379737
0.0364779
0.0351603
0.0340053
0.0330011
0.0321386
0.0314105
0.0308114
0.0303369
0.0299837
0.0297495
0.0296328
0.0296328
0.0297495
0.0299837
0.0303369
0.0308114
0.0314105
0.0321386
0.0330011
0.0340053
0.0351603
0.0364779
0.0379737
0.0396685
0.0415908
0.0437799
0.0462911
0.049201
0.0526115
0.0566411
0.0613779
0.0666981
0.0718789
0.0748293
0.0673338
0.0408952
0.0321588
0.0565813
0.0668648
0.0672297
0.0642247
0.0601559
0.0560833
0.0523851
0.0491309
0.0462888
0.0438018
0.0416156
0.0396862
0.0379799
0.0364711
0.0351404
0.0339731
0.0329578
0.0320853
0.0313488
0.0307427
0.0302626
0.0299053
0.0296683
0.0295502
0.0295502
0.0296683
0.0299053
0.0302626
0.0307427
0.0313488
0.0320853
0.0329578
0.0339731
0.0351404
0.0364711
0.0379799
0.0396862
0.0416156
0.0438018
0.0462888
0.0491309
0.0523851
0.0560833
0.0601559
0.0642247
0.0672297
0.0668648
0.0565813
0.0321588
0.0280275
0.0489772
0.0601636
0.062769
0.0615436
0.0586442
0.0552683
0.0519589
0.0489116
0.0461747
0.0437375
0.0415717
0.0396472
0.0379376
0.0364217
0.0350824
0.0339061
0.032882
0.0320018
0.0312584
0.0306464
0.0301616
0.0298008
0.0295615
0.0294422
0.0294422
0.0295615
0.0298008
0.0301616
0.0306464
0.0312584
0.0320018
0.032882
0.0339061
0.0350824
0.0364217
0.0379376
0.0396472
0.0415717
0.0437375
0.0461747
0.0489116
0.0519589
0.0552683
0.0586442
0.0615436
0.062769
0.0601636
0.0489772
0.0280275
0.0266223
0.0438794
0.0548105
0.0587513
0.05887
0.0569818
0.0542728
0.0513707
0.0485604
0.0459558
0.0435896
0.0414595
0.0395507
0.037846
0.0363289
0.0349853
0.0338033
0.0327733
0.0318872
0.0311385
0.030522
0.0300335
0.0296699
0.0294287
0.0293085
0.0293085
0.0294287
0.0296699
0.0300335
0.030522
0.0311385
0.0318872
0.0327733
0.0338033
0.0349853
0.0363289
0.037846
0.0395507
0.0414595
0.0435896
0.0459558
0.0485604
0.0513707
0.0542728
0.0569818
0.05887
0.0587513
0.0548105
0.0438794
0.0266223
0.0267351
0.0406557
0.0507147
0.0553037
0.056356
0.0552843
0.0531703
0.0506626
0.0480991
0.0456429
0.0433628
0.0412808
0.0393975
0.0377049
0.0361921
0.0348485
0.0336643
0.0326309
0.031741
0.0309888
0.030369
0.0298779
0.0295121
0.0292695
0.0291486
0.0291486
0.0292695
0.0295121
0.0298779
0.030369
0.0309888
0.031741
0.0326309
0.0336643
0.0348485
0.0361921
0.0377049
0.0393975
0.0412808
0.0433628
0.0456429
0.0480991
0.0506626
0.0531703
0.0552843
0.056356
0.0553037
0.0507147
0.0406557
0.0267351
0.0276402
0.0387704
0.0476961
0.0524556
0.0540926
0.0536383
0.0520242
0.0498748
0.0475514
0.0452488
0.0430638
0.0410388
0.0391887
0.0375144
0.0360111
0.0346716
0.0334883
0.0324542
0.0315628
0.0308086
0.030187
0.0296942
0.0293271
0.0290836
0.0289622
0.0289622
0.0290836
0.0293271
0.0296942
0.030187
0.0308086
0.0315628
0.0324542
0.0334883
0.0346716
0.0360111
0.0375144
0.0391887
0.0410388
0.0430638
0.0452488
0.0475514
0.0498748
0.0520242
0.0536383
0.0540926
0.0524556
0.0476961
0.0387704
0.0276402
0.0289207
0.0378105
0.0455527
0.0501752
0.0521225
0.0521022
0.0508847
0.0490433
0.0469403
0.0447873
0.0427001
0.0407374
0.038926
0.0372753
0.0357859
0.0344542
0.033275
0.0322427
0.0313519
0.0305975
0.0299754
0.029482
0.0291144
0.0288705
0.0287489
0.0287489
0.0288705
0.0291144
0.029482
0.0299754
0.0305975
0.0313519
0.0322427
0.033275
0.0344542
0.0357859
0.0372753
0.038926
0.0407374
0.0427001
0.0447873
0.0469403
0.0490433
0.0508847
0.0521022
0.0521225
0.0501752
0.0455527
0.0378105
0.0289207
0.0303438
0.0374735
0.0440947
0.0483993
0.0504532
0.0507099
0.049788
0.0481976
0.0462866
0.0442717
0.0422798
0.0403812
0.0386119
0.0369885
0.0355166
0.0341961
0.0330239
0.031996
0.0311077
0.030355
0.0297338
0.0292409
0.0288736
0.0286298
0.0285083
0.0285083
0.0286298
0.0288736
0.0292409
0.0297338
0.030355
0.0311077
0.031996
0.0330239
0.0341961
0.0355166
0.0369885
0.0386119
0.0403812
0.0422798
0.0442717
0.0462866
0.0481976
0.049788
0.0507099
0.0504532
0.0483993
0.0440947
0.0374735
0.0303438
0.0317845
0.0375442
0.0431582
0.0470519
0.0490692
0.0494755
0.0487577
0.0473602
0.0456079
0.0437142
0.0418107
0.0399747
0.0382488
0.0366553
0.0352039
0.0338973
0.0327348
0.0317135
0.03083
0.0300805
0.0294617
0.0289704
0.0286042
0.0283611
0.0282399
0.0282399
0.0283611
0.0286042
0.0289704
0.0294617
0.0300805
0.03083
0.0317135
0.0327348
0.0338973
0.0352039
0.0366553
0.0382488
0.0399747
0.0418107
0.0437142
0.0456079
0.0473602
0.0487577
0.0494755
0.0490692
0.0470519
0.0431582
0.0375442
0.0317845
0.0331795
0.0378725
0.0426085
0.0460557
0.0479413
0.0483984
0.0478057
0.0465461
0.0449176
0.0431251
0.0412999
0.0395224
0.0378394
0.036277
0.0348481
0.0335579
0.0324074
0.0313951
0.0305182
0.0297737
0.0291586
0.0286701
0.0283058
0.0280639
0.0279433
0.0279433
0.0280639
0.0283058
0.0286701
0.0291586
0.0297737
0.0305182
0.0313951
0.0324074
0.0335579
0.0348481
0.036277
0.0378394
0.0395224
0.0412999
0.0431251
0.0449176
0.0465461
0.0478057
0.0483984
0.0479413
0.0460557
0.0426085
0.0378725
0.0331795
0.0344994
0.0383558
0.0423384
0.0453387
0.0470337
0.047468
0.0469351
0.0457639
0.0442253
0.0425125
0.0407533
0.0390283
0.0373862
0.035855
0.03445
0.0331781
0.0320418
0.0310404
0.030172
0.0294342
0.0288242
0.0283396
0.0279781
0.027738
0.0276183
0.0276183
0.027738
0.0279781
0.0283396
0.0288242
0.0294342
0.030172
0.0310404
0.0320418
0.0331781
0.03445
0.035855
0.0373862
0.0390283
0.0407533
0.0425125
0.0442253
0.0457639
0.0469351
0.047468
0.0470337
0.0453387
0.0423384
0.0383558
0.0344994
0.0357333
0.0389246
0.0422646
0.0448372
0.0463083
0.0466669
0.0461418
0.0450164
0.0435362
0.0418818
0.0401756
0.0384958
0.0368912
0.0353906
0.0340102
0.0327582
0.0316378
0.0306492
0.0297912
0.0290617
0.0284583
0.0279786
0.0276207
0.0273831
0.0272645
0.0272645
0.0273831
0.0276207
0.0279786
0.0284583
0.0290617
0.0297912
0.0306492
0.0316378
0.0327582
0.0340102
0.0353906
0.0368912
0.0384958
0.0401756
0.0418818
0.0435362
0.0450164
0.0461418
0.0466669
0.0463083
0.0448372
0.0422646
0.0389246
0.0357333
0.0368791
0.039532
0.0423233
0.0444965
0.0457278
0.0459743
0.0454169
0.0443018
0.0428521
0.0412362
0.0395696
0.0379274
0.0363563
0.0348849
0.0335294
0.0322983
0.0311955
0.0302215
0.0293756
0.028656
0.0280604
0.0275869
0.0272335
0.0269988
0.0268817
0.0268817
0.0269988
0.0272335
0.0275869
0.0280604
0.028656
0.0293756
0.0302215
0.0311955
0.0322983
0.0335294
0.0348849
0.0363563
0.0379274
0.0395696
0.0412362
0.0428521
0.0443018
0.0454169
0.0459743
0.0457278
0.0444965
0.0423233
0.039532
0.0368791
0.037939
0.0401461
0.0424658
0.0442705
0.0452573
0.0453677
0.0447478
0.0436146
0.0421718
0.0405764
0.0389371
0.0373245
0.0357828
0.0343388
0.033008
0.0317989
0.030715
0.0297573
0.0289252
0.0282169
0.0276306
0.0271643
0.0268162
0.026585
0.0264696
0.0264696
0.026585
0.0268162
0.0271643
0.0276306
0.0282169
0.0289252
0.0297573
0.030715
0.0317989
0.033008
0.0343388
0.0357828
0.0373245
0.0389371
0.0405764
0.0421718
0.0436146
0.0447478
0.0453677
0.0452573
0.0442705
0.0424658
0.0401461
0.037939
0.038916
0.040745
0.0426546
0.0441209
0.0448654
0.0448246
0.0441204
0.0429469
0.0414915
0.0399014
0.0382782
0.036688
0.0351714
0.033753
0.0324468
0.0312602
0.0301966
0.0292567
0.0284399
0.0277445
0.0271688
0.0267108
0.0263689
0.0261418
0.0260284
0.0260284
0.0261418
0.0263689
0.0267108
0.0271688
0.0277445
0.0284399
0.0292567
0.0301966
0.0312602
0.0324468
0.033753
0.0351714
0.036688
0.0382782
0.0399014
0.0414915
0.0429469
0.0441204
0.0448246
0.0448654
0.0441209
0.0426546
0.040745
0.038916
0.0398135
0.0413132
0.0428611
0.0440159
0.0445238
0.044323
0.0435193
0.0422887
0.0408056
0.0392082
0.0375919
0.0360177
0.0345226
0.033128
0.031846
0.0306827
0.0296407
0.0287201
0.0279201
0.0272391
0.0266752
0.0262266
0.0258917
0.0256692
0.0255582
0.0255582
0.0256692
0.0258917
0.0262266
0.0266752
0.0272391
0.0279201
0.0287201
0.0296407
0.0306827
0.031846
0.033128
0.0345226
0.0360177
0.0375919
0.0392082
0.0408056
0.0422887
0.0435193
0.044323
0.0445238
0.0440159
0.0428611
0.0413132
0.0398135
0.0406339
0.0418392
0.0430627
0.043929
0.0442075
0.0438423
0.0429287
0.0416291
0.0401071
0.0384929
0.0368761
0.0353129
0.0338362
0.0324641
0.0312063
0.030067
0.0290476
0.0281478
0.0273661
0.0267009
0.0261501
0.025712
0.0253849
0.0251675
0.0250591
0.0250591
0.0251675
0.0253849
0.025712
0.0261501
0.0267009
0.0273661
0.0281478
0.0290476
0.030067
0.0312063
0.0324641
0.0338362
0.0353129
0.0368761
0.0384929
0.0401071
0.0416291
0.0429287
0.0438423
0.0442075
0.043929
0.0430627
0.0418392
0.0406339
0.041379
0.042314
0.0432413
0.043838
0.0438944
0.0433633
0.0423333
0.0409567
0.039388
0.0377503
0.0361278
0.0345721
0.0331117
0.0317614
0.0305279
0.0294134
0.028418
0.0275403
0.0267785
0.0261304
0.025594
0.0251673
0.0248488
0.0246372
0.0245316
0.0245316
0.0246372
0.0248488
0.0251673
0.025594
0.0261304
0.0267785
0.0275403
0.028418
0.0294134
0.0305279
0.0317614
0.0331117
0.0345721
0.0361278
0.0377503
0.039388
0.0409567
0.0423333
0.0433633
0.0438944
0.043838
0.0432413
0.042314
0.041379
0.0420492
0.04273
0.0433818
0.0437238
0.043565
0.0428681
0.0417184
0.0402601
0.03864
0.0369749
0.0353438
0.0337935
0.0323485
0.0310198
0.0298111
0.0287226
0.0277525
0.0268984
0.0261579
0.0255283
0.0250075
0.0245933
0.0242841
0.0240787
0.0239762
0.0239762
0.0240787
0.0242841
0.0245933
0.0250075
0.0255283
0.0261579
0.0268984
0.0277525
0.0287226
0.0298111
0.0310198
0.0323485
0.0337935
0.0353438
0.0369749
0.03864
0.0402601
0.0417184
0.0428681
0.043565
0.0437238
0.0433818
0.04273
0.0420492
0.0426439
0.0430803
0.0434714
0.04357
0.0432019
0.0423406
0.0410699
0.0395281
0.0378548
0.036161
0.0345203
0.0329751
0.0315456
0.0302392
0.0290565
0.0279952
0.0270519
0.026223
0.0255052
0.0248955
0.0243914
0.0239906
0.0236915
0.0234928
0.0233937
0.0233937
0.0234928
0.0236915
0.0239906
0.0243914
0.0248955
0.0255052
0.026223
0.0270519
0.0279952
0.0290565
0.0302392
0.0315456
0.0329751
0.0345203
0.036161
0.0378548
0.0395281
0.0410699
0.0423406
0.0432019
0.04357
0.0434714
0.0430803
0.0426439
0.0431616
0.0433586
0.0434989
0.043362
0.0427896
0.0417659
0.040375
0.0387501
0.0370244
0.0353028
0.0336538
0.032115
0.0307024
0.0294197
0.0282645
0.0272321
0.0263172
0.025515
0.0248215
0.0242329
0.0237466
0.0233602
0.0230719
0.0228803
0.0227848
0.0227848
0.0228803
0.0230719
0.0233602
0.0237466
0.0242329
0.0248215
0.025515
0.0263172
0.0272321
0.0282645
0.0294197
0.0307024
0.032115
0.0336538
0.0353028
0.0370244
0.0387501
0.040375
0.0417659
0.0427896
0.043362
0.0434989
0.0433586
0.0431616
0.0435997
0.0435581
0.0434536
0.0430868
0.0423139
0.0411304
0.0396216
0.0379163
0.0361412
0.0343951
0.0327408
0.0312112
0.029818
0.0285614
0.0274358
0.0264342
0.0255495
0.0247758
0.0241078
0.0235418
0.0230743
0.0227031
0.0224262
0.0222423
0.0221506
0.0221506
0.0222423
0.0224262
0.0227031
0.0230744
0.0235418
0.0241078
0.0247758
0.0255495
0.0264342
0.0274358
0.0285614
0.029818
0.0312112
0.0327408
0.0343951
0.0361412
0.0379163
0.0396216
0.0411304
0.0423139
0.0430868
0.0434536
0.0435581
0.0435997
0.0439549
0.0436724
0.0433257
0.0427322
0.041762
0.040422
0.0387991
0.0370178
0.0351986
0.0334331
0.0317784
0.0302623
0.0288922
0.0276646
0.0265713
0.0256027
0.0247502
0.0240065
0.0233657
0.0228233
0.0223758
0.0220206
0.0217557
0.0215798
0.0214921
0.0214921
0.0215798
0.0217557
0.0220206
0.0223758
0.0228233
0.0233657
0.0240065
0.0247502
0.0256027
0.0265713
0.0276646
0.0288922
0.0302623
0.0317784
0.0334331
0.0351986
0.0370178
0.0387991
0.040422
0.041762
0.0427322
0.0433257
0.0436724
0.0439549
0.044223
0.0436945
0.0431056
0.0422866
0.0411218
0.0396292
0.0378975
0.036047
0.0341907
0.0324129
0.0307643
0.0292672
0.0279248
0.0267301
0.025672
0.024739
0.0239207
0.0232087
0.0225965
0.022079
0.0216523
0.0213139
0.0210616
0.0208941
0.0208105
0.0208105
0.0208941
0.0210616
0.0213139
0.0216523
0.022079
0.0225965
0.0232087
0.0239207
0.024739
0.025672
0.0267301
0.0279248
0.0292672
0.0307643
0.0324129
0.0341907
0.036047
0.0378975
0.0396292
0.0411218
0.0422866
0.0431056
0.0436945
0.044223
0.0443992
0.0436172
0.0427838
0.0417391
0.040382
0.0387418
0.0369085
0.0349971
0.0331128
0.0313316
0.0296969
0.0282255
0.0269162
0.0257587
0.0247393
0.0238445
0.0230626
0.0223841
0.0218018
0.0213102
0.0209054
0.0205843
0.0203451
0.0201863
0.0201071
0.0201071
0.0201863
0.0203451
0.0205843
0.0209054
0.0213102
0.0218018
0.0223841
0.0230626
0.0238445
0.0247393
0.0257587
0.0269162
0.0282255
0.0296969
0.0313316
0.0331128
0.0349971
0.0369085
0.0387418
0.040382
0.0417391
0.0427838
0.0436172
0.0443992
0.0444779
0.0434327
0.0423507
0.0410792
0.0395322
0.0377506
0.0358244
0.0338628
0.0319614
0.0301871
0.0285755
0.0271374
0.0258674
0.0247519
0.0237748
0.0229211
0.0221777
0.0215344
0.0209834
0.0205187
0.0201364
0.0198334
0.0196077
0.0194578
0.0193831
0.0193831
0.0194578
0.0196077
0.0198334
0.0201364
0.0205187
0.0209834
0.0215344
0.0221777
0.0229211
0.0237748
0.0247519
0.0258674
0.0271374
0.0285755
0.0301871
0.0319614
0.0338628
0.0358244
0.0377506
0.0395322
0.0410792
0.0423507
0.0434327
0.0444779
0.044453
0.0431329
0.0417964
0.0402961
0.0385626
0.0366471
0.0346393
0.03264
0.0307343
0.0289786
0.0274003
0.0260039
0.0247797
0.0237112
0.0227804
0.0219706
0.0212679
0.0206614
0.0201428
0.0197061
0.019347
0.0190625
0.0188506
0.01871
0.0186399
0.0186399
0.01871
0.0188506
0.0190625
0.019347
0.0197061
0.0201428
0.0206614
0.0212679
0.0219706
0.0227804
0.0237112
0.0247797
0.0260039
0.0274003
0.0289786
0.0307343
0.03264
0.0346393
0.0366471
0.0385626
0.0402961
0.0417964
0.0431329
0.044453
0.0443181
0.0427091
0.0411104
0.0393794
0.0374638
0.0354243
0.0333481
0.031326
0.0294305
0.0277065
0.0261724
0.0248265
0.0236551
0.0226388
0.0217581
0.0209951
0.0203352
0.0197669
0.0192819
0.0188739
0.0185386
0.0182731
0.0180753
0.0179441
0.0178787
0.0178787
0.0179441
0.0180753
0.0182731
0.0185386
0.0188739
0.0192819
0.0197669
0.0203352
0.0209951
0.0217581
0.0226388
0.0236551
0.0248265
0.0261724
0.0277065
0.0294305
0.031326
0.0333481
0.0354243
0.0374638
0.0393794
0.0411104
0.0427091
0.0443181
0.0440661
0.0421516
0.0402816
0.0383181
0.0362268
0.0340762
0.0319477
0.0299199
0.0280507
0.0263725
0.0248942
0.023608
0.0224962
0.0215374
0.0207105
0.0199969
0.0193817
0.0188531
0.0184025
0.0180239
0.0177129
0.0174666
0.0172832
0.0171615
0.0171008
0.0171008
0.0171615
0.0172832
0.0174666
0.0177129
0.0180239
0.0184025
0.0188531
0.0193817
0.0199969
0.0207105
0.0215374
0.0224962
0.023608
0.0248942
0.0263725
0.0280507
0.0299199
0.0319477
0.0340762
0.0362268
0.0383181
0.0402816
0.0421516
0.0440661
0.0436893
0.04145
0.0392979
0.0371011
0.0348434
0.0325978
0.0304364
0.0284222
0.0265968
0.0249792
0.0235686
0.0223512
0.0213059
0.0204095
0.0196399
0.0189783
0.0184095
0.0179217
0.0175064
0.0171577
0.0168713
0.0166445
0.0164755
0.0163634
0.0163075
0.0163075
0.0163634
0.0164755
0.0166445
0.0168713
0.0171577
0.0175064
0.0179217
0.0184095
0.0189783
0.0196399
0.0204095
0.0213059
0.0223512
0.0235686
0.0249792
0.0265968
0.0284222
0.0304364
0.0325978
0.0348434
0.0371011
0.0392979
0.04145
0.0436893
0.0431796
0.0405923
0.0381459
0.035717
0.033306
0.0309857
0.0288142
0.0268352
0.0250724
0.0235304
0.0221994
0.0210597
0.0200875
0.0192581
0.0185491
0.0179416
0.0174206
0.0169745
0.0165951
0.0162766
0.016015
0.0158078
0.0156534
0.0155509
0.0154997
0.0154997
0.0155509
0.0156534
0.0158078
0.016015
0.0162766
0.0165951
0.0169745
0.0174206
0.0179416
0.0185491
0.0192581
0.0200875
0.0210597
0.0221994
0.0235304
0.0250724
0.0268352
0.0288142
0.0309857
0.033306
0.035717
0.0381459
0.0405923
0.0431796
0.0425279
0.0395645
0.0368105
0.034154
0.0316079
0.0292384
0.0270832
0.0251633
0.0234824
0.0220314
0.0207913
0.0197377
0.0188445
0.0180862
0.0174407
0.0168892
0.0164171
0.0160135
0.0156703
0.0153822
0.0151454
0.0149578
0.0148179
0.0147249
0.0146785
0.0146785
0.0147249
0.0148179
0.0149578
0.0151454
0.0153822
0.0156703
0.0160135
0.0164171
0.0168892
0.0174407
0.0180862
0.0188445
0.0197377
0.0207913
0.0220314
0.0234824
0.0251633
0.0270832
0.0292384
0.0316079
0.034154
0.0368105
0.0395645
0.0425279
0.0417237
0.0383501
0.0352749
0.0324004
0.0297445
0.0273567
0.025248
0.0234126
0.0218337
0.0204885
0.01935
0.01839
0.0175808
0.0168973
0.0163174
0.0158233
0.015401
0.0150402
0.0147335
0.0144757
0.0142637
0.0140955
0.01397
0.0138865
0.0138448
0.0138448
0.0138865
0.01397
0.0140955
0.0142637
0.0144757
0.0147335
0.0150402
0.015401
0.0158233
0.0163174
0.0168973
0.0175808
0.01839
0.01935
0.0204885
0.0218337
0.0234126
0.025248
0.0273567
0.0297445
0.0324004
0.0352749
0.0383501
0.0417237
0.0407542
0.0369286
0.0335199
0.030445
0.0277129
0.0253446
0.023316
0.0215916
0.0201344
0.0189088
0.0178814
0.0170214
0.0163007
0.0156946
0.0151821
0.0147463
0.0143743
0.0140565
0.013786
0.0135585
0.013371
0.013222
0.0131107
0.0130365
0.0129995
0.0129995
0.0130365
0.0131107
0.013222
0.013371
0.0135585
0.013786
0.0140565
0.0143743
0.0147463
0.0151821
0.0156946
0.0163007
0.0170214
0.0178814
0.0189088
0.0201344
0.0215916
0.023316
0.0253446
0.0277129
0.030445
0.0335199
0.0369286
0.0407542
0.0396028
0.0352745
0.0315238
0.0282777
0.0255139
0.0232093
0.0212972
0.0197111
0.0183941
0.0173005
0.0163923
0.0156375
0.0150084
0.0144816
0.0140375
0.0136606
0.0133389
0.0130638
0.0128294
0.0126316
0.0124684
0.0123383
0.0122408
0.0121758
0.0121433
0.0121433
0.0121758
0.0122408
0.0123383
0.0124684
0.0126316
0.0128294
0.0130638
0.0133389
0.0136606
0.0140375
0.0144816
0.0150084
0.0156375
0.0163923
0.0173005
0.0183941
0.0197111
0.0212972
0.0232093
0.0255139
0.0282777
0.0315238
0.0352745
0.0396028
0.0382458
0.0333546
0.0292629
0.025891
0.0231525
0.0209625
0.0192054
0.0177835
0.0166236
0.0156723
0.0148895
0.0142435
0.0137081
0.0132616
0.0128863
0.0125681
0.0122965
0.0120637
0.0118647
0.0116963
0.0115566
0.011445
0.0113611
0.011305
0.0112769
0.0112769
0.011305
0.0113611
0.011445
0.0115566
0.0116963
0.0118647
0.0120637
0.0122965
0.0125681
0.0128863
0.0132616
0.0137081
0.0142435
0.0148895
0.0156723
0.0166236
0.0177835
0.0192054
0.0209625
0.0231525
0.025891
0.0292629
0.0333546
0.0382458
0.0366475
0.0311261
0.0267119
0.0232819
0.0206396
0.0186207
0.0170572
0.0158236
0.0148346
0.0140334
0.01338
0.0128448
0.0124039
0.0120379
0.011731
0.0114711
0.0112487
0.0110575
0.0108932
0.0107533
0.0106367
0.0105429
0.0104722
0.0104247
0.0104009
0.0104009
0.0104247
0.0104722
0.0105429
0.0106367
0.0107533
0.0108932
0.0110575
0.0112487
0.0114711
0.011731
0.0120379
0.0124039
0.0128448
0.01338
0.0140334
0.0148346
0.0158236
0.0170572
0.0186207
0.0206396
0.0232819
0.0267119
0.0311261
0.0366475
0.0347517
0.0285341
0.0238464
0.0204546
0.0179939
0.016206
0.0148726
0.0138473
0.0130395
0.012393
0.0118708
0.0114467
0.0110998
0.0108135
0.0105742
0.0103714
0.0101973
0.0100466
0.00991601
0.00980379
0.00970937
0.00963286
0.00957473
0.00953557
0.00951585
0.00951585
0.00953557
0.00957473
0.00963286
0.00970937
0.00980379
0.00991601
0.0100466
0.0101973
0.0103714
0.0105742
0.0108135
0.0110998
0.0114467
0.0118708
0.012393
0.0130395
0.0138473
0.0148726
0.016206
0.0179939
0.0204546
0.0238464
0.0285341
0.0347517
0.0324707
0.0255125
0.0206491
0.0174259
0.0152444
0.0137468
0.0126746
0.0118722
0.011251
0.0107603
0.0103686
0.0100542
0.00979978
0.00959154
0.00941821
0.00927105
0.00914378
0.00903225
0.00893414
0.00884853
0.00877542
0.00871542
0.00866937
0.00863811
0.00862231
0.00862231
0.00863811
0.00866937
0.00871542
0.00877542
0.00884853
0.00893414
0.00903225
0.00914378
0.00927105
0.00941821
0.00959154
0.00979978
0.0100542
0.0103686
0.0107603
0.011251
0.0118722
0.0126746
0.0137468
0.0152444
0.0174259
0.0206491
0.0255125
0.0324707
0.0296742
0.0219876
0.0171178
0.0142297
0.0124312
0.0112768
0.0104883
0.00991548
0.00948081
0.00914337
0.00887904
0.00867109
0.00850627
0.00837356
0.0082639
0.00817037
0.00808808
0.00801409
0.00794704
0.00788676
0.00783391
0.00778957
0.00775495
0.00773118
0.00771908
0.00771908
0.00773118
0.00775495
0.00778957
0.00783391
0.00788676
0.00794704
0.00801409
0.00808808
0.00817037
0.0082639
0.00837356
0.00850627
0.00867109
0.00887904
0.00914337
0.00948081
0.00991548
0.0104883
0.0112768
0.0124312
0.0142297
0.0171178
0.0219876
0.0296742
0.0261313
0.0178479
0.0132525
0.0109058
0.00959436
0.00882504
0.00833179
0.00798776
0.00773484
0.00754516
0.00740301
0.00729719
0.00721823
0.00715781
0.00710902
0.00706661
0.00702709
0.00698868
0.00695095
0.00691453
0.0068807
0.00685104
0.00682714
0.00681036
0.00680171
0.00680171
0.00681036
0.00682714
0.00685104
0.0068807
0.00691453
0.00695095
0.00698868
0.00702709
0.00706661
0.00710902
0.00715781
0.00721823
0.00729719
0.00740301
0.00754516
0.00773484
0.00798776
0.00833179
0.00882504
0.00959436
0.0109058
0.0132525
0.0178479
0.0261313
0.0212616
0.0128471
0.00901438
0.00746637
0.00674575
0.00639464
0.00620275
0.00608534
0.00601028
0.00596483
0.00594209
0.00593624
0.00594134
0.00595163
0.0059622
0.00596941
0.00597118
0.00596689
0.00595712
0.00594332
0.00592743
0.00591156
0.00589767
0.00588744
0.00588204
0.00588204
0.00588745
0.00589767
0.00591156
0.00592743
0.00594332
0.00595712
0.00596689
0.00597118
0.00596941
0.0059622
0.00595163
0.00594134
0.00593624
0.00594209
0.00596483
0.00601028
0.00608534
0.00620275
0.00639464
0.00674575
0.00746637
0.00901438
0.0128471
0.0212616
0.0139276
0.00682932
0.0045158
0.00402447
0.00396838
0.0040477
0.00415366
0.00425805
0.00435821
0.00445675
0.00455505
0.00465195
0.00474443
0.00482881
0.00490178
0.00496119
0.00500623
0.00503747
0.00505656
0.00506587
0.00506812
0.00506605
0.00506214
0.0050584
0.00505623
0.00505623
0.0050584
0.00506214
0.00506605
0.00506812
0.00506587
0.00505656
0.00503747
0.00500623
0.00496119
0.00490178
0.00482881
0.00474443
0.00465195
0.00455505
0.00445675
0.00435821
0.00425805
0.00415366
0.0040477
0.00396838
0.00402447
0.0045158
0.00682932
0.0139276
0.00454581
0.00152551
0.00108854
0.00153192
0.0019603
0.00231447
0.00259653
0.00282917
0.00303287
0.00322088
0.00339932
0.00356897
0.00372744
0.00387115
0.00399682
0.00410234
0.00418711
0.00425204
0.00429918
0.00433138
0.00435183
0.00436373
0.0043699
0.00437268
0.00437366
0.00437366
0.00437268
0.0043699
0.00436373
0.00435184
0.00433138
0.00429918
0.00425204
0.00418711
0.00410234
0.00399682
0.00387115
0.00372744
0.00356897
0.00339932
0.00322088
0.00303287
0.00282917
0.00259653
0.00231447
0.0019603
0.00153192
0.00108854
0.00152551
0.00454581
0.00381308
0.00250752
0.00230516
0.00235374
0.0023343
0.00228259
0.0022162
0.00215324
0.00210647
0.00208274
0.00208354
0.00210625
0.00214571
0.00219571
0.00225014
0.00230387
0.00235313
0.00239561
0.00243028
0.00245715
0.00247691
0.0024906
0.0024994
0.00250435
0.00250626
0.00250626
0.00250435
0.0024994
0.0024906
0.00247691
0.00245715
0.00243028
0.00239561
0.00235313
0.00230387
0.00225014
0.00219571
0.00214571
0.00210625
0.00208354
0.00208274
0.00210647
0.00215324
0.0022162
0.00228259
0.0023343
0.00235374
0.00230516
0.00250752
0.00381308
)
;

boundaryField
{
    left
    {
        type            zeroGradient;
    }
    right
    {
        type            zeroGradient;
    }
    up
    {
        type            fixedValue;
        value           uniform 0;
    }
    down
    {
        type            zeroGradient;
    }
    frontAndBack
    {
        type            empty;
    }
}


// ************************************************************************* //
