/*--------------------------------*- C++ -*----------------------------------*\
  =========                 |
  \\      /  F ield         | OpenFOAM: The Open Source CFD Toolbox
   \\    /   O peration     | Website:  https://openfoam.org
    \\  /    A nd           | Version:  6
     \\/     M anipulation  |
\*---------------------------------------------------------------------------*/
FoamFile
{
    version     2.0;
    format      ascii;
    class       volVectorField;
    location    "3200";
    object      U;
}
// * * * * * * * * * * * * * * * * * * * * * * * * * * * * * * * * * * * * * //

dimensions      [0 1 -1 0 0 0 0];

internalField   nonuniform List<vector> 
2500
(
(-0.00438437 0.350276 -5.17399e-19)
(0.0160034 0.406635 0)
(0.0105792 0.401735 -1.53462e-19)
(0.00652148 0.400557 2.51661e-20)
(0.00448955 0.400281 1.29134e-19)
(0.003284 0.400159 0)
(0.00254383 0.400106 9.56066e-20)
(0.00205883 0.400078 -9.5836e-20)
(0.00171912 0.40006 4.23254e-20)
(0.00146796 0.400048 -4.24189e-20)
(0.00127318 0.400039 0)
(0.00111561 0.400032 3.67467e-20)
(0.000983391 0.400027 -3.68187e-20)
(0.000868968 0.400023 0)
(0.000767371 0.400019 0)
(0.000675246 0.400016 0)
(0.000590269 0.400014 -1.55349e-20)
(0.000510776 0.400011 3.97878e-22)
(0.000435544 0.40001 3.40107e-22)
(0.00036364 0.400008 2.94435e-20)
(0.000294325 0.400007 -7.41467e-21)
(0.000226995 0.400006 -1.42963e-20)
(0.000161133 0.400005 1.06359e-20)
(9.62839e-05 0.400005 -5.28244e-21)
(3.20289e-05 0.400005 1.75622e-21)
(-3.20289e-05 0.400005 1.75622e-21)
(-9.6284e-05 0.400005 -5.28244e-21)
(-0.000161133 0.400005 1.06359e-20)
(-0.000226995 0.400006 -1.42963e-20)
(-0.000294325 0.400007 -7.41467e-21)
(-0.00036364 0.400008 2.94435e-20)
(-0.000435544 0.40001 3.40107e-22)
(-0.000510776 0.400011 3.97878e-22)
(-0.000590269 0.400014 -1.55349e-20)
(-0.000675246 0.400016 0)
(-0.000767371 0.400019 0)
(-0.000868968 0.400023 0)
(-0.000983391 0.400027 -3.68187e-20)
(-0.00111561 0.400032 3.67467e-20)
(-0.00127318 0.400039 0)
(-0.00146796 0.400048 -4.24189e-20)
(-0.00171912 0.40006 4.23254e-20)
(-0.00205883 0.400078 -9.5836e-20)
(-0.00254383 0.400106 9.56066e-20)
(-0.003284 0.400159 0)
(-0.00448955 0.400281 1.29134e-19)
(-0.00652148 0.400557 2.51661e-20)
(-0.0105792 0.401735 -1.53462e-19)
(-0.0160034 0.406635 0)
(0.00438437 0.350276 5.17399e-19)
(-0.0161779 0.26024 4.18437e-19)
(0.0248845 0.388899 -4.35931e-19)
(0.0250433 0.403363 0)
(0.0186982 0.402926 0)
(0.0136625 0.401722 0)
(0.010235 0.401009 0)
(0.00796922 0.400635 1.29487e-19)
(0.00643557 0.400428 -1.29927e-19)
(0.00535124 0.400306 0)
(0.00454928 0.400231 0)
(0.00392994 0.400182 0)
(0.00343201 0.400149 0)
(0.003017 0.400126 4.74513e-20)
(0.00266014 0.40011 -4.75713e-20)
(0.00234505 0.400098 0)
(0.0020607 0.40009 0)
(0.00179943 0.400083 -2.08601e-20)
(0.00155577 0.400078 2.09037e-20)
(0.00132573 0.400073 1.99319e-20)
(0.00110628 0.40007 -1.99693e-20)
(0.000895044 0.400068 0)
(0.000690081 0.400066 9.54239e-21)
(0.00048975 0.400064 -9.55719e-21)
(0.000292606 0.400063 0)
(9.73293e-05 0.400063 0)
(-9.73293e-05 0.400063 0)
(-0.000292606 0.400063 0)
(-0.00048975 0.400064 -9.55719e-21)
(-0.000690081 0.400066 9.54239e-21)
(-0.000895044 0.400068 0)
(-0.00110628 0.40007 -1.99693e-20)
(-0.00132573 0.400073 1.99319e-20)
(-0.00155577 0.400078 2.09037e-20)
(-0.00179943 0.400083 -2.08601e-20)
(-0.0020607 0.40009 0)
(-0.00234505 0.400098 0)
(-0.00266014 0.40011 -4.75713e-20)
(-0.003017 0.400126 4.74513e-20)
(-0.00343201 0.400149 0)
(-0.00392994 0.400182 0)
(-0.00454928 0.400231 0)
(-0.00535124 0.400306 0)
(-0.00643557 0.400428 -1.29927e-19)
(-0.00796922 0.400635 1.29487e-19)
(-0.010235 0.401009 0)
(-0.0136625 0.401722 0)
(-0.0186982 0.402926 0)
(-0.0250433 0.403363 0)
(-0.0248845 0.388899 -4.35931e-19)
(0.0161779 0.26024 4.18437e-19)
(-0.0247593 0.199734 -1.97399e-20)
(0.0152555 0.358944 -3.17069e-19)
(0.0290013 0.399525 0)
(0.0271133 0.405336 0)
(0.021761 0.404258 -1.58041e-19)
(0.017022 0.402814 1.5873e-19)
(0.0135002 0.401854 -1.30874e-19)
(0.0109729 0.401267 7.03597e-20)
(0.00913565 0.400907 6.11929e-20)
(0.0077596 0.400679 0)
(0.00669207 0.400532 5.17416e-20)
(0.00583368 0.400433 -1.01359e-19)
(0.00511975 0.400365 9.70842e-20)
(0.00450768 0.400317 -4.76e-20)
(0.003969 0.400282 0)
(0.00348432 0.400257 -4.28109e-20)
(0.00304012 0.400238 4.29048e-20)
(0.00262678 0.400223 2.03e-20)
(0.00223724 0.400211 -4.74269e-22)
(0.00186615 0.400202 -3.94096e-20)
(0.00150934 0.400196 1.95409e-20)
(0.00116343 0.40019 -9.50144e-21)
(0.000825541 0.400187 9.51619e-21)
(0.000493173 0.400184 0)
(0.000164035 0.400183 0)
(-0.000164035 0.400183 0)
(-0.000493173 0.400184 0)
(-0.000825541 0.400187 9.51619e-21)
(-0.00116343 0.40019 -9.50144e-21)
(-0.00150934 0.400196 1.95409e-20)
(-0.00186615 0.400202 -3.94096e-20)
(-0.00223724 0.400211 -4.74269e-22)
(-0.00262678 0.400223 2.03e-20)
(-0.00304012 0.400238 4.29048e-20)
(-0.00348432 0.400257 -4.28109e-20)
(-0.003969 0.400282 0)
(-0.00450768 0.400317 -4.76e-20)
(-0.00511975 0.400365 9.70842e-20)
(-0.00583368 0.400433 -1.01359e-19)
(-0.00669207 0.400532 5.17416e-20)
(-0.0077596 0.400679 0)
(-0.00913565 0.400907 6.11929e-20)
(-0.0109729 0.401267 7.03597e-20)
(-0.0135002 0.401854 -1.30874e-19)
(-0.017022 0.402814 1.5873e-19)
(-0.021761 0.404258 -1.58041e-19)
(-0.0271133 0.405336 0)
(-0.0290013 0.399525 0)
(-0.0152555 0.358944 -3.17069e-19)
(0.0247593 0.199734 6.36182e-19)
(-0.0289946 0.151129 0)
(0.000589464 0.322814 2.37611e-19)
(0.0243233 0.388351 -2.31443e-19)
(0.0302315 0.405183 -1.78465e-19)
(0.0275077 0.406703 2.09534e-20)
(0.0229227 0.405174 1.58594e-19)
(0.0187646 0.40365 6.57101e-20)
(0.0154821 0.402574 -1.2717e-19)
(0.0129746 0.401866 6.14224e-20)
(0.0110465 0.401404 0)
(0.00953033 0.401098 5.17858e-20)
(0.00830364 0.400892 -1.01407e-19)
(0.00728132 0.400749 4.96069e-20)
(0.00640506 0.400648 4.56577e-20)
(0.00563489 0.400575 -8.98501e-20)
(0.0049431 0.400521 4.41835e-20)
(0.0043102 0.400481 0)
(0.00372222 0.40045 2.02269e-20)
(0.00316885 0.400426 -4.00529e-20)
(0.00264231 0.400407 1.98231e-20)
(0.00213652 0.400393 -9.56492e-21)
(0.00164652 0.400383 9.58073e-21)
(0.00116815 0.400375 4.69014e-21)
(0.000697775 0.40037 -2.36183e-21)
(0.000232077 0.400368 -2.33822e-21)
(-0.000232077 0.400368 -2.33822e-21)
(-0.000697775 0.40037 -2.36183e-21)
(-0.00116815 0.400375 4.69014e-21)
(-0.00164652 0.400383 9.58073e-21)
(-0.00213652 0.400393 -9.56492e-21)
(-0.00264231 0.400407 1.98231e-20)
(-0.00316885 0.400426 -4.00529e-20)
(-0.00372222 0.40045 2.02269e-20)
(-0.0043102 0.400481 0)
(-0.0049431 0.400521 4.41835e-20)
(-0.00563489 0.400575 -8.98501e-20)
(-0.00640506 0.400648 4.56577e-20)
(-0.00728132 0.400749 4.96069e-20)
(-0.00830364 0.400892 -1.01407e-19)
(-0.00953033 0.401098 5.17858e-20)
(-0.0110465 0.401404 0)
(-0.0129746 0.401866 6.14224e-20)
(-0.0154821 0.402574 -1.2717e-19)
(-0.0187646 0.40365 6.57101e-20)
(-0.0229227 0.405174 1.58594e-19)
(-0.0275077 0.406703 2.09534e-20)
(-0.0302315 0.405183 -1.78465e-19)
(-0.0243233 0.388351 -2.31443e-19)
(-0.000589464 0.322814 2.37611e-19)
(0.0289946 0.151129 0)
(-0.0292936 0.114855 0)
(-0.0125376 0.285091 0)
(0.0150923 0.370346 0)
(0.0285374 0.400722 -1.72636e-19)
(0.0303168 0.407642 1.72556e-19)
(0.0273727 0.407367 -1.42107e-19)
(0.0233998 0.40571 7.7063e-20)
(0.0197563 0.404217 6.58736e-20)
(0.0167537 0.403129 5.75425e-20)
(0.0143466 0.40238 -3.29607e-21)
(0.012409 0.401869 -5.46043e-20)
(0.0108213 0.401518 0)
(0.00948945 0.401273 0)
(0.00834474 0.401099 0)
(0.00733789 0.400973 0)
(0.00643385 0.40088 0)
(0.00560748 0.40081 2.06698e-20)
(0.00484052 0.400756 -2.07124e-20)
(0.00411944 0.400715 0)
(0.00343395 0.400683 0)
(0.00277595 0.400659 0)
(0.0021389 0.40064 0)
(0.00151728 0.400627 4.66425e-21)
(0.00090624 0.400619 -2.349e-21)
(0.000301398 0.400615 -2.32509e-21)
(-0.000301398 0.400615 -2.32509e-21)
(-0.00090624 0.400619 -2.349e-21)
(-0.00151728 0.400627 4.66425e-21)
(-0.0021389 0.40064 0)
(-0.00277595 0.400659 0)
(-0.00343395 0.400683 0)
(-0.00411944 0.400715 0)
(-0.00484052 0.400756 -2.07124e-20)
(-0.00560748 0.40081 2.06698e-20)
(-0.00643385 0.40088 0)
(-0.00733789 0.400973 0)
(-0.00834474 0.401099 0)
(-0.00948945 0.401273 0)
(-0.0108213 0.401518 0)
(-0.012409 0.401869 -5.46043e-20)
(-0.0143466 0.40238 -3.29607e-21)
(-0.0167537 0.403129 5.75425e-20)
(-0.0197563 0.404217 6.58736e-20)
(-0.0233998 0.40571 7.7063e-20)
(-0.0273727 0.407367 -1.42107e-19)
(-0.0303168 0.407642 1.72556e-19)
(-0.0285374 0.400722 -1.72636e-19)
(-0.0150923 0.370346 0)
(0.0125376 0.285091 0)
(0.0292936 0.114855 0)
(-0.0274591 0.0891304 -3.24367e-20)
(-0.0221246 0.249643 1.36599e-19)
(0.00462212 0.347793 1.77975e-19)
(0.0234854 0.391698 -1.74962e-19)
(0.0302883 0.406125 0)
(0.030081 0.408687 1.40393e-19)
(0.0271219 0.407652 -1.40881e-19)
(0.0236007 0.406017 -6.09998e-20)
(0.0203539 0.404615 3.80067e-21)
(0.0175898 0.403572 5.76167e-20)
(0.0152871 0.40283 5.16705e-20)
(0.0133623 0.402307 -5.18201e-20)
(0.0117295 0.401936 4.72565e-20)
(0.0103177 0.40167 -1.94687e-21)
(0.0090723 0.401477 -4.55388e-20)
(0.00795282 0.401333 -2.12009e-20)
(0.0069294 0.401225 6.63267e-22)
(0.00597991 0.401143 2.06254e-20)
(0.00508774 0.401079 0)
(0.00424011 0.40103 0)
(0.00342696 0.400992 9.46295e-21)
(0.0026401 0.400964 -1.88285e-20)
(0.00187259 0.400944 1.40011e-20)
(0.00111838 0.400931 -6.95128e-21)
(0.000371936 0.400925 2.31109e-21)
(-0.000371936 0.400925 2.31109e-21)
(-0.00111838 0.400931 -6.95128e-21)
(-0.00187259 0.400944 1.40011e-20)
(-0.0026401 0.400964 -1.88285e-20)
(-0.00342696 0.400992 9.46295e-21)
(-0.00424011 0.40103 0)
(-0.00508774 0.401079 0)
(-0.00597991 0.401143 2.06254e-20)
(-0.0069294 0.401225 6.63267e-22)
(-0.00795282 0.401333 -2.12009e-20)
(-0.0090723 0.401477 -4.55388e-20)
(-0.0103177 0.40167 -1.94687e-21)
(-0.0117295 0.401936 4.72565e-20)
(-0.0133623 0.402307 -5.18201e-20)
(-0.0152871 0.40283 5.16705e-20)
(-0.0175898 0.403572 5.76167e-20)
(-0.0203539 0.404615 3.80067e-21)
(-0.0236007 0.406017 -6.09998e-20)
(-0.0271219 0.407652 -1.40881e-19)
(-0.030081 0.408687 1.40393e-19)
(-0.0302883 0.406125 0)
(-0.0234854 0.391698 -1.74962e-19)
(-0.00462212 0.347793 1.77975e-19)
(0.0221246 0.249643 1.36599e-19)
(0.0274591 0.0891304 -2.33129e-19)
(-0.0247913 0.0710263 -7.94717e-20)
(-0.0281238 0.218343 0)
(-0.00506716 0.323167 0)
(0.0166502 0.378827 0)
(0.0279621 0.401777 0)
(0.0310333 0.408583 0)
(0.0297644 0.409089 0)
(0.0268582 0.407757 0)
(0.0236632 0.406216 0)
(0.0207041 0.40493 0)
(0.0181202 0.403958 -5.15151e-20)
(0.0158996 0.403249 2.48932e-21)
(0.0139849 0.402735 4.93096e-20)
(0.0123135 0.402361 4.52694e-20)
(0.0108314 0.402087 -4.53776e-20)
(0.00949554 0.401883 0)
(0.00827291 0.401728 0)
(0.00713824 0.40161 0)
(0.00607218 0.401519 0)
(0.00505967 0.401449 0)
(0.00408872 0.401395 0)
(0.00314951 0.401355 0)
(0.00223369 0.401326 0)
(0.00133395 0.401308 2.29315e-21)
(0.000443614 0.401298 -2.29621e-21)
(-0.000443614 0.401298 -2.29621e-21)
(-0.00133395 0.401308 2.29315e-21)
(-0.00223369 0.401326 0)
(-0.00314951 0.401355 0)
(-0.00408872 0.401395 0)
(-0.00505967 0.401449 0)
(-0.00607218 0.401519 0)
(-0.00713824 0.40161 0)
(-0.00827291 0.401728 0)
(-0.00949554 0.401883 0)
(-0.0108314 0.402087 -4.53776e-20)
(-0.0123135 0.402361 4.52694e-20)
(-0.0139849 0.402735 4.93096e-20)
(-0.0158996 0.403249 2.48932e-21)
(-0.0181202 0.403958 -5.15151e-20)
(-0.0207041 0.40493 0)
(-0.0236632 0.406216 0)
(-0.0268582 0.407757 0)
(-0.0297644 0.409089 0)
(-0.0310333 0.408583 0)
(-0.0279621 0.401777 0)
(-0.0166502 0.378827 0)
(0.00506716 0.323167 0)
(0.0281238 0.218343 0)
(0.0247913 0.0710263 7.94717e-20)
(-0.0219494 0.0582215 0)
(-0.0311753 0.191654 0)
(-0.0129883 0.298374 1.51948e-19)
(0.00933515 0.363205 -1.48033e-19)
(0.0240682 0.394688 0)
(0.0304343 0.406729 0)
(0.0312883 0.409683 0)
(0.0294278 0.409205 -6.00578e-20)
(0.0265899 0.407799 6.02584e-20)
(0.0236229 0.406383 0)
(0.0208637 0.405219 0)
(0.0184045 0.404327 -4.89758e-20)
(0.0162372 0.403662 4.91088e-20)
(0.0143203 0.40317 -4.50752e-20)
(0.0126074 0.402804 8.86297e-20)
(0.0110569 0.402529 -4.35446e-20)
(0.00963451 0.40232 2.03793e-20)
(0.00831302 0.40216 -2.042e-20)
(0.00707097 0.402037 0)
(0.0058913 0.401941 1.89967e-20)
(0.00476026 0.401868 -1.90288e-20)
(0.00366643 0.401814 0)
(0.0026001 0.401774 0)
(0.00155269 0.401749 0)
(0.000516343 0.401737 0)
(-0.000516343 0.401737 0)
(-0.00155269 0.401749 0)
(-0.0026001 0.401774 0)
(-0.00366643 0.401814 0)
(-0.00476026 0.401868 -1.90288e-20)
(-0.0058913 0.401941 1.89967e-20)
(-0.00707097 0.402037 0)
(-0.00831302 0.40216 -2.042e-20)
(-0.00963451 0.40232 2.03793e-20)
(-0.0110569 0.402529 -4.35446e-20)
(-0.0126074 0.402804 8.86297e-20)
(-0.0143203 0.40317 -4.50752e-20)
(-0.0162372 0.403662 4.91088e-20)
(-0.0184045 0.404327 -4.89758e-20)
(-0.0208637 0.405219 0)
(-0.0236229 0.406383 0)
(-0.0265899 0.407799 6.02584e-20)
(-0.0294278 0.409205 -6.00578e-20)
(-0.0312883 0.409683 0)
(-0.0304343 0.406729 0)
(-0.0240682 0.394688 0)
(-0.00933515 0.363205 -1.48033e-19)
(0.0129883 0.298374 1.51948e-19)
(0.0311753 0.191654 0)
(0.0219494 0.0582215 0)
(-0.0192433 0.0490975 0)
(-0.0320665 0.169371 0)
(-0.0188423 0.274685 0)
(0.00245128 0.345966 0)
(0.0193398 0.385256 0)
(0.0286252 0.40303 0)
(0.031769 0.409193 -6.2658e-20)
(0.0312724 0.410151 6.27802e-20)
(0.0290708 0.409219 0)
(0.0262902 0.407847 5.35375e-20)
(0.0234765 0.406565 -5.37021e-20)
(0.0208488 0.405517 0)
(0.0184677 0.404706 0)
(0.0163259 0.40409 0)
(0.0143923 0.403625 0)
(0.0126313 0.403271 0)
(0.0110103 0.403001 0)
(0.00950148 0.402794 0)
(0.00808208 0.402633 0)
(0.00673352 0.402508 0)
(0.00544047 0.402412 0)
(0.00419008 0.402341 0)
(0.00297129 0.40229 0)
(0.00177428 0.402257 0)
(0.000590021 0.40224 0)
(-0.000590021 0.40224 0)
(-0.00177428 0.402257 0)
(-0.00297129 0.40229 0)
(-0.00419008 0.402341 0)
(-0.00544047 0.402412 0)
(-0.00673352 0.402508 0)
(-0.00808208 0.402633 0)
(-0.00950148 0.402794 0)
(-0.0110103 0.403001 0)
(-0.0126313 0.403271 0)
(-0.0143923 0.403625 0)
(-0.0163259 0.40409 0)
(-0.0184677 0.404706 0)
(-0.0208488 0.405517 0)
(-0.0234765 0.406565 -5.37021e-20)
(-0.0262902 0.407847 5.35375e-20)
(-0.0290708 0.409219 0)
(-0.0312724 0.410151 6.27802e-20)
(-0.031769 0.409193 -6.2658e-20)
(-0.0286252 0.40303 0)
(-0.0193398 0.385256 0)
(-0.00245128 0.345966 0)
(0.0188423 0.274685 0)
(0.0320665 0.169371 0)
(0.0192433 0.0490975 0)
(-0.0168034 0.0425227 -1.7454e-20)
(-0.031503 0.151003 8.85207e-20)
(-0.0227271 0.252845 0)
(-0.00346428 0.328104 0)
(0.0143999 0.37404 0)
(0.0260007 0.397588 0)
(0.031366 0.407493 -6.15905e-20)
(0.0324158 0.410425 3.01058e-21)
(0.0310765 0.410344 2.98691e-21)
(0.0286658 0.40923 5.59402e-20)
(0.0259235 0.407941 0)
(0.0232063 0.406788 -4.84229e-20)
(0.020658 0.405849 9.4952e-20)
(0.0183174 0.405113 -4.65157e-20)
(0.0161772 0.404545 0)
(0.0142127 0.404108 -2.07603e-20)
(0.012396 0.403771 4.09325e-20)
(0.0107005 0.40351 -2.01686e-20)
(0.00910327 0.403307 -1.9119e-20)
(0.00758464 0.40315 2.85187e-20)
(0.00612811 0.403028 -1.85941e-20)
(0.00471955 0.402938 9.22639e-21)
(0.00334665 0.402873 -4.50759e-21)
(0.00199836 0.402831 6.75676e-21)
(0.00066453 0.40281 -2.24586e-21)
(-0.00066453 0.40281 -2.24586e-21)
(-0.00199836 0.402831 6.75676e-21)
(-0.00334665 0.402873 -4.50759e-21)
(-0.00471955 0.402938 9.22639e-21)
(-0.00612811 0.403028 -1.85941e-20)
(-0.00758464 0.40315 2.85187e-20)
(-0.00910327 0.403307 -1.9119e-20)
(-0.0107005 0.40351 -2.01686e-20)
(-0.012396 0.403771 4.09325e-20)
(-0.0142127 0.404108 -2.07603e-20)
(-0.0161772 0.404545 0)
(-0.0183174 0.405113 -4.65157e-20)
(-0.020658 0.405849 9.4952e-20)
(-0.0232063 0.406788 -4.84229e-20)
(-0.0259235 0.407941 0)
(-0.0286658 0.40923 5.59402e-20)
(-0.0310765 0.410344 2.98691e-21)
(-0.0324158 0.410425 3.01058e-21)
(-0.031366 0.407493 -6.15905e-20)
(-0.0260007 0.397588 0)
(-0.0143999 0.37404 0)
(0.00346428 0.328104 0)
(0.0227271 0.252845 0)
(0.031503 0.151003 8.85207e-20)
(0.0168034 0.0425227 -1.51538e-19)
(-0.0146636 0.0377082 0)
(-0.0300324 0.135966 1.14406e-19)
(-0.0249272 0.23321 -1.09936e-19)
(-0.0081685 0.310404 0)
(0.00971464 0.361642 -6.49855e-20)
(0.0229444 0.390641 6.42637e-20)
(0.030288 0.404572 6.05145e-20)
(0.0329319 0.40992 -6.04858e-20)
(0.0326106 0.411058 5.51712e-20)
(0.0307275 0.410448 -5.53065e-20)
(0.0281784 0.409292 0)
(0.0254543 0.408106 0)
(0.0227908 0.407071 4.60824e-20)
(0.0202826 0.406228 -1.91373e-21)
(0.0179533 0.40556 -6.57168e-20)
(0.0157948 0.405037 4.19959e-20)
(0.0137871 0.404629 -2.06581e-20)
(0.0119069 0.40431 0)
(0.0101321 0.404061 1.89738e-20)
(0.00844281 0.403867 -1.90061e-20)
(0.00682181 0.403717 0)
(0.00525385 0.403605 -9.0208e-21)
(0.00372549 0.403524 9.03379e-21)
(0.00222456 0.403472 0)
(0.000739742 0.403447 0)
(-0.000739742 0.403447 0)
(-0.00222456 0.403472 0)
(-0.00372549 0.403524 9.03379e-21)
(-0.00525385 0.403605 -9.0208e-21)
(-0.00682181 0.403717 0)
(-0.00844281 0.403867 -1.90061e-20)
(-0.0101321 0.404061 1.89738e-20)
(-0.0119069 0.40431 0)
(-0.0137871 0.404629 -2.06581e-20)
(-0.0157948 0.405037 4.19959e-20)
(-0.0179533 0.40556 -6.57168e-20)
(-0.0202826 0.406228 -1.91373e-21)
(-0.0227908 0.407071 4.60824e-20)
(-0.0254543 0.408106 0)
(-0.0281784 0.409292 0)
(-0.0307275 0.410448 -5.53065e-20)
(-0.0326106 0.411058 5.51712e-20)
(-0.0329319 0.40992 -6.04858e-20)
(-0.030288 0.404572 6.05145e-20)
(-0.0229444 0.390641 6.42637e-20)
(-0.00971464 0.361642 -6.49855e-20)
(0.0081685 0.310404 0)
(0.0249272 0.23321 -1.09936e-19)
(0.0300324 0.135966 1.14406e-19)
(0.0146636 0.0377082 0)
(-0.0128086 0.0341143 1.57436e-19)
(-0.0280442 0.123686 -1.99899e-19)
(-0.0257813 0.215866 1.06897e-19)
(-0.0116196 0.293424 0)
(0.00559199 0.348624 0)
(0.0197879 0.382506 0)
(0.0287601 0.400512 0)
(0.0329301 0.408588 -5.70167e-20)
(0.0337065 0.411279 5.70546e-20)
(0.0324719 0.411422 0)
(0.0302248 0.41056 4.98135e-20)
(0.0275749 0.409431 -4.9941e-20)
(0.024851 0.40835 4.57243e-20)
(0.0222094 0.407421 -4.58336e-20)
(0.0197118 0.406661 0)
(0.0173712 0.406054 0)
(0.0151788 0.405572 0)
(0.0131169 0.405193 -1.9283e-20)
(0.0111658 0.404894 3.81341e-20)
(0.00930602 0.40466 -1.88486e-20)
(0.00752004 0.404479 0)
(0.00579187 0.404343 8.94156e-21)
(0.00410706 0.404245 -4.52382e-21)
(0.00245241 0.404182 -2.23213e-21)
(0.00081551 0.404151 -2.20695e-21)
(-0.00081551 0.404151 -2.20695e-21)
(-0.00245241 0.404182 -2.23213e-21)
(-0.00410706 0.404245 -4.52382e-21)
(-0.00579187 0.404343 8.94156e-21)
(-0.00752004 0.404479 0)
(-0.00930602 0.40466 -1.88486e-20)
(-0.0111658 0.404894 3.81341e-20)
(-0.0131169 0.405193 -1.9283e-20)
(-0.0151788 0.405572 0)
(-0.0173712 0.406054 0)
(-0.0197118 0.406661 0)
(-0.0222094 0.407421 -4.58336e-20)
(-0.024851 0.40835 4.57243e-20)
(-0.0275749 0.409431 -4.9941e-20)
(-0.0302248 0.41056 4.98135e-20)
(-0.0324719 0.411422 0)
(-0.0337065 0.411279 5.70546e-20)
(-0.0329301 0.408588 -5.70167e-20)
(-0.0287601 0.400512 0)
(-0.0197879 0.382506 0)
(-0.00559199 0.348624 0)
(0.0116196 0.293424 0)
(0.0257813 0.215866 1.06897e-19)
(0.0280442 0.123686 -1.99899e-19)
(0.0128086 0.0341143 1.1235e-20)
(-0.0112027 0.0313765 0)
(-0.0257974 0.11365 0)
(-0.0256116 0.200732 -5.9778e-20)
(-0.0138966 0.277529 5.79047e-20)
(0.00220454 0.335469 -6.18364e-20)
(0.016792 0.373528 6.08933e-20)
(0.0269981 0.395462 0)
(0.0325393 0.406443 0)
(0.0344211 0.410955 0)
(0.0339129 0.412093 0)
(0.0320571 0.411693 -4.93268e-20)
(0.0295562 0.410729 9.66908e-20)
(0.026826 0.40966 -4.73609e-20)
(0.0240875 0.408677 2.17856e-20)
(0.0214444 0.40784 -4.28257e-20)
(0.0189354 0.407153 2.10357e-20)
(0.0165662 0.406599 0)
(0.014327 0.406157 1.91132e-20)
(0.0122015 0.405806 -3.77943e-20)
(0.0101721 0.405529 9.54806e-21)
(0.00822116 0.405315 9.14457e-21)
(0.00633238 0.405152 8.85701e-21)
(0.00449053 0.405036 -4.48125e-21)
(0.00268143 0.404961 -2.21082e-21)
(0.000891675 0.404924 -2.18562e-21)
(-0.000891675 0.404924 -2.18562e-21)
(-0.00268143 0.404961 -2.21082e-21)
(-0.00449053 0.405036 -4.48125e-21)
(-0.00633238 0.405152 8.85701e-21)
(-0.00822116 0.405315 9.14457e-21)
(-0.0101721 0.405529 9.54806e-21)
(-0.0122015 0.405806 -3.77943e-20)
(-0.014327 0.406157 1.91132e-20)
(-0.0165662 0.406599 0)
(-0.0189354 0.407153 2.10357e-20)
(-0.0214444 0.40784 -4.28257e-20)
(-0.0240875 0.408677 2.17856e-20)
(-0.026826 0.40966 -4.73609e-20)
(-0.0295562 0.410729 9.66908e-20)
(-0.0320571 0.411693 -4.93268e-20)
(-0.0339129 0.412093 0)
(-0.0344211 0.410955 0)
(-0.0325393 0.406443 0)
(-0.0269981 0.395462 0)
(-0.016792 0.373528 6.08933e-20)
(-0.00220454 0.335469 -6.18364e-20)
(0.0138966 0.277529 5.79047e-20)
(0.0256116 0.200732 -5.9778e-20)
(0.0257974 0.11365 0)
(0.0112027 0.0313765 0)
(-0.0098048 0.0292498 0)
(-0.0234541 0.10543 5.43668e-20)
(-0.0246919 0.18764 -5.25481e-20)
(-0.015139 0.262921 -6.06561e-20)
(-0.000378364 0.322558 5.91727e-20)
(0.0141437 0.364045 5.94549e-20)
(0.025192 0.389614 -5.88612e-20)
(0.0318933 0.403547 5.54376e-20)
(0.0348268 0.410076 -1.08546e-19)
(0.0350794 0.412417 5.32176e-20)
(0.0336801 0.412649 0)
(0.0313923 0.411964 0)
(0.0287068 0.410979 0)
(0.0259077 0.409982 0)
(0.0231432 0.409088 0)
(0.0204811 0.408331 0)
(0.0179444 0.407707 0)
(0.0155331 0.407202 0)
(0.0132363 0.406796 0)
(0.0110386 0.406475 0)
(0.00892335 0.406224 0)
(0.00687406 0.406034 0)
(0.00487498 0.405897 4.34279e-21)
(0.00291109 0.405809 -2.18808e-21)
(0.000968059 0.405765 -2.16289e-21)
(-0.000968059 0.405765 -2.16289e-21)
(-0.00291109 0.405809 -2.18808e-21)
(-0.00487498 0.405897 4.34279e-21)
(-0.00687406 0.406034 0)
(-0.00892335 0.406224 0)
(-0.0110386 0.406475 0)
(-0.0132363 0.406796 0)
(-0.0155331 0.407202 0)
(-0.0179444 0.407707 0)
(-0.0204811 0.408331 0)
(-0.0231432 0.409088 0)
(-0.0259077 0.409982 0)
(-0.0287068 0.410979 0)
(-0.0313923 0.411964 0)
(-0.0336801 0.412649 0)
(-0.0350794 0.412417 5.32176e-20)
(-0.0348268 0.410076 -1.08546e-19)
(-0.0318933 0.403547 5.54376e-20)
(-0.025192 0.389614 -5.88612e-20)
(-0.0141437 0.364045 5.94549e-20)
(0.000378364 0.322558 5.91727e-20)
(0.015139 0.262921 -6.06561e-20)
(0.0246919 0.18764 -5.25481e-20)
(0.0234541 0.10543 5.43668e-20)
(0.0098048 0.0292498 0)
(-0.00857588 0.0275699 0)
(-0.0211091 0.098677 0)
(-0.0232394 0.176383 0)
(-0.0155066 0.249691 0)
(-0.00215891 0.310178 0)
(0.0119629 0.354361 0)
(0.0234967 0.383182 0)
(0.03112 0.399999 0)
(0.0350044 0.408659 0)
(0.0360116 0.412375 0)
(0.0351076 0.413396 0)
(0.0330832 0.413107 0)
(0.0304877 0.412283 0)
(0.0276626 0.411318 0)
(0.0248012 0.410393 0)
(0.0220022 0.409579 0)
(0.0193083 0.408891 1.9268e-20)
(0.0167313 0.408324 -1.93014e-20)
(0.0142669 0.407864 0)
(0.0119031 0.407497 0)
(0.00962466 0.407208 0)
(0.00741547 0.406989 0)
(0.0052594 0.40683 0)
(0.0031408 0.406727 0)
(0.00104447 0.406677 0)
(-0.00104447 0.406677 0)
(-0.0031408 0.406727 0)
(-0.0052594 0.40683 0)
(-0.00741547 0.406989 0)
(-0.00962466 0.407208 0)
(-0.0119031 0.407497 0)
(-0.0142669 0.407864 0)
(-0.0167313 0.408324 -1.93014e-20)
(-0.0193083 0.408891 1.9268e-20)
(-0.0220022 0.409579 0)
(-0.0248012 0.410393 0)
(-0.0276626 0.411318 0)
(-0.0304877 0.412283 0)
(-0.0330832 0.413107 0)
(-0.0351076 0.413396 0)
(-0.0360116 0.412375 0)
(-0.0350044 0.408659 0)
(-0.03112 0.399999 0)
(-0.0234967 0.383182 0)
(-0.0119629 0.354361 0)
(0.00215891 0.310178 0)
(0.0155066 0.249691 0)
(0.0232394 0.176383 0)
(0.0211091 0.098677 0)
(0.00857588 0.0275699 0)
(-0.00748196 0.0262256 0)
(-0.0188127 0.0931126 0)
(-0.0214178 0.166749 0)
(-0.0151556 0.237845 0)
(-0.0031839 0.298528 -5.90115e-20)
(0.010314 0.344736 1.15712e-19)
(0.02203 0.376375 -5.70828e-20)
(0.0303334 0.395923 0)
(0.0350358 0.406753 -5.1861e-20)
(0.0367568 0.411969 5.18063e-20)
(0.0363611 0.413914 4.76757e-20)
(0.0346348 0.414133 -4.77403e-20)
(0.0321666 0.413551 0)
(0.0293471 0.412671 0)
(0.0264125 0.411746 -2.03468e-20)
(0.023493 0.410892 2.03844e-20)
(0.0206529 0.410148 -1.90478e-20)
(0.0179174 0.409523 1.90796e-20)
(0.0152899 0.409009 0)
(0.0127628 0.408594 -8.83744e-21)
(0.010323 0.408266 1.66285e-22)
(0.00795503 0.408015 8.6953e-21)
(0.00564272 0.407834 -4.24293e-21)
(0.00336992 0.407716 6.35838e-21)
(0.00112069 0.407658 -2.11274e-21)
(-0.00112069 0.407658 -2.11274e-21)
(-0.00336992 0.407716 6.35838e-21)
(-0.00564272 0.407834 -4.24293e-21)
(-0.00795503 0.408015 8.6953e-21)
(-0.010323 0.408266 1.66285e-22)
(-0.0127628 0.408594 -8.83744e-21)
(-0.0152899 0.409009 0)
(-0.0179174 0.409523 1.90796e-20)
(-0.0206529 0.410148 -1.90478e-20)
(-0.023493 0.410892 2.03844e-20)
(-0.0264125 0.411746 -2.03468e-20)
(-0.0293471 0.412671 0)
(-0.0321666 0.413551 0)
(-0.0346348 0.414133 -4.77403e-20)
(-0.0363611 0.413914 4.76757e-20)
(-0.0367568 0.411969 5.18063e-20)
(-0.0350358 0.406753 -5.1861e-20)
(-0.0303334 0.395923 0)
(-0.02203 0.376375 -5.70828e-20)
(-0.010314 0.344736 1.15712e-19)
(0.0031839 0.298528 -5.90115e-20)
(0.0151556 0.237845 0)
(0.0214178 0.166749 0)
(0.0188127 0.0931126 0)
(0.00748196 0.0262256 0)
(-0.00649467 0.0251409 4.60778e-20)
(-0.0165869 0.0885187 5.55132e-20)
(-0.0193454 0.158533 -5.3908e-20)
(-0.0142254 0.227342 0)
(-0.00352414 0.287735 5.84617e-20)
(0.00921948 0.335381 -5.73053e-20)
(0.0208742 0.369394 -5.54006e-20)
(0.0296289 0.391456 5.49143e-20)
(0.0349991 0.404426 0)
(0.0373657 0.411218 0)
(0.0374674 0.414197 -2.35365e-20)
(0.0360575 0.415028 2.35584e-20)
(0.0337446 0.414767 0)
(0.0309578 0.414026 0)
(0.027972 0.413136 -2.00935e-20)
(0.0249485 0.412262 2.01289e-20)
(0.0219737 0.411473 0)
(0.0190873 0.410795 0)
(0.016302 0.410228 0)
(0.0136151 0.409766 -8.72488e-21)
(0.0110162 0.409398 8.73681e-21)
(0.0084911 0.409115 0)
(0.00602377 0.40891 0)
(0.00359776 0.408776 0)
(0.0011965 0.40871 0)
(-0.0011965 0.40871 0)
(-0.00359776 0.408776 0)
(-0.00602377 0.40891 0)
(-0.0084911 0.409115 0)
(-0.0110162 0.409398 8.73681e-21)
(-0.0136151 0.409766 -8.72488e-21)
(-0.016302 0.410228 0)
(-0.0190873 0.410795 0)
(-0.0219737 0.411473 0)
(-0.0249485 0.412262 2.01289e-20)
(-0.027972 0.413136 -2.00935e-20)
(-0.0309578 0.414026 0)
(-0.0337446 0.414767 0)
(-0.0360575 0.415028 2.35584e-20)
(-0.0374674 0.414197 -2.35365e-20)
(-0.0373657 0.411218 0)
(-0.0349991 0.404426 0)
(-0.0296289 0.391456 5.49143e-20)
(-0.0208742 0.369394 -5.54006e-20)
(-0.00921948 0.335381 -5.73053e-20)
(0.00352414 0.287735 5.84617e-20)
(0.0142254 0.227342 0)
(0.0193454 0.158533 -5.3908e-20)
(0.0165869 0.0885187 5.55132e-20)
(0.00649468 0.0251409 -4.60778e-20)
(-0.0055909 0.024263 -4.77419e-20)
(-0.0144369 0.0847248 0)
(-0.0171051 0.151554 0)
(-0.0128343 0.218106 -5.85715e-20)
(-0.00325997 0.277869 5.71095e-20)
(0.00867156 0.326458 0)
(0.0200805 0.362417 -5.48101e-20)
(0.0290816 0.386736 5.42699e-20)
(0.0349639 0.401762 0)
(0.0378888 0.410159 -2.42319e-20)
(0.0384565 0.414253 9.9151e-22)
(0.0373658 0.415784 2.32333e-20)
(0.035226 0.415918 0)
(0.0324935 0.415372 2.0565e-20)
(0.0294759 0.414554 -2.05986e-20)
(0.0263639 0.413683 1.91487e-20)
(0.0232659 0.412862 -1.91796e-20)
(0.020237 0.412137 0)
(0.0172996 0.41152 0)
(0.014457 0.411011 0)
(0.011702 0.410602 0)
(0.00902196 0.410287 0)
(0.00640137 0.410056 0)
(0.00382362 0.409906 0)
(0.00127167 0.409832 0)
(-0.00127167 0.409832 0)
(-0.00382362 0.409906 0)
(-0.00640137 0.410056 0)
(-0.00902196 0.410287 0)
(-0.011702 0.410602 0)
(-0.014457 0.411011 0)
(-0.0172996 0.41152 0)
(-0.020237 0.412137 0)
(-0.0232659 0.412862 -1.91796e-20)
(-0.0263639 0.413683 1.91487e-20)
(-0.0294759 0.414554 -2.05986e-20)
(-0.0324935 0.415372 2.0565e-20)
(-0.035226 0.415918 0)
(-0.0373658 0.415784 2.32333e-20)
(-0.0384565 0.414253 9.9151e-22)
(-0.0378888 0.410159 -2.42319e-20)
(-0.0349639 0.401762 0)
(-0.0290816 0.386736 5.42699e-20)
(-0.0200805 0.362417 -5.48101e-20)
(-0.00867156 0.326458 0)
(0.00325997 0.277869 5.71095e-20)
(0.0128343 0.218106 -5.85715e-20)
(0.0171051 0.151554 0)
(0.0144369 0.0847248 0)
(0.0055909 0.024263 4.77419e-20)
(-0.00475209 0.0235549 0)
(-0.0123585 0.0815981 0)
(-0.0147527 0.145652 0)
(-0.0110781 0.21005 0)
(-0.00247178 0.268959 0)
(0.00864293 0.31809 5.62167e-20)
(0.0196747 0.355596 -5.53386e-20)
(0.0287467 0.381897 2.60558e-20)
(0.0349892 0.398853 -2.58813e-20)
(0.0383734 0.408842 0)
(0.0393596 0.414101 0)
(0.0385761 0.416402 0)
(0.0366173 0.416999 0)
(0.0339545 0.4167 0)
(0.0309216 0.415991 0)
(0.0277353 0.415147 0)
(0.0245254 0.414309 0)
(0.0213624 0.413545 0)
(0.0182792 0.412882 0)
(0.0152855 0.412328 0)
(0.012378 0.411879 0)
(0.00954575 0.41153 0)
(0.0067742 0.411274 0)
(0.00404673 0.411107 0)
(0.00134593 0.411024 0)
(-0.00134593 0.411024 0)
(-0.00404673 0.411107 0)
(-0.0067742 0.411274 0)
(-0.00954575 0.41153 0)
(-0.012378 0.411879 0)
(-0.0152855 0.412328 0)
(-0.0182792 0.412882 0)
(-0.0213624 0.413545 0)
(-0.0245254 0.414309 0)
(-0.0277353 0.415147 0)
(-0.0309216 0.415991 0)
(-0.0339545 0.4167 0)
(-0.0366173 0.416999 0)
(-0.0385761 0.416402 0)
(-0.0393596 0.414101 0)
(-0.0383734 0.408842 0)
(-0.0349892 0.398853 -2.58813e-20)
(-0.0287467 0.381897 2.60558e-20)
(-0.0196747 0.355596 -5.53386e-20)
(-0.00864293 0.31809 5.62167e-20)
(0.00247178 0.268959 0)
(0.0110781 0.21005 0)
(0.0147527 0.145652 0)
(0.0123585 0.0815981 0)
(0.00475209 0.0235549 0)
(-0.00396348 0.0229896 -5.19287e-20)
(-0.0103429 0.079035 5.51288e-20)
(-0.012325 0.14069 -5.85017e-20)
(-0.00903313 0.203083 5.69704e-20)
(-0.001235 0.261006 2.87262e-20)
(0.0090945 0.310361 -2.33673e-22)
(0.0196625 0.349061 -2.74468e-20)
(0.028661 0.377066 2.57542e-20)
(0.0351223 0.395794 -9.2189e-22)
(0.0388617 0.407325 -9.68461e-22)
(0.0402065 0.413767 -2.35145e-20)
(0.0397062 0.41689 -2.1603e-20)
(0.0379264 0.418006 8.82757e-22)
(0.0353424 0.418003 8.20329e-22)
(0.0323069 0.417441 1.9957e-20)
(0.0290589 0.416649 0)
(0.0257478 0.415809 8.98702e-21)
(0.0224593 0.415016 -8.99956e-21)
(0.019237 0.414312 -8.51614e-21)
(0.0160975 0.413715 8.52701e-21)
(0.0130415 0.413226 0)
(0.0100605 0.412843 4.0374e-21)
(0.00714087 0.412561 -4.04178e-21)
(0.00426625 0.412376 9.94155e-22)
(0.00141902 0.412285 -9.95129e-22)
(-0.00141902 0.412285 -9.95129e-22)
(-0.00426625 0.412376 9.94155e-22)
(-0.00714087 0.412561 -4.04178e-21)
(-0.0100605 0.412843 4.0374e-21)
(-0.0130415 0.413226 0)
(-0.0160975 0.413715 8.52701e-21)
(-0.019237 0.414312 -8.51614e-21)
(-0.0224593 0.415016 -8.99956e-21)
(-0.0257478 0.415809 8.98702e-21)
(-0.0290589 0.416649 0)
(-0.0323069 0.417441 1.9957e-20)
(-0.0353424 0.418003 8.20329e-22)
(-0.0379264 0.418006 8.82757e-22)